 vasp.5.4.1 24Jun15 (build Jul 03 2015 11:55:34) complex                        
  
 executed on           IFC91_ompi date 2023.02.20  18:31:02
 running on    8 total cores
 distrk:  each k-point on    8 cores,    1 groups
 distr:  one band on NCORES_PER_BAND=   1 cores,    8 groups


--------------------------------------------------------------------------------------------------------


 INCAR:
 POTCAR:   PAW_PBE Y_sv 06Sep2000                 
 POTCAR:   PAW_PBE N 08Apr2002                    
 POTCAR:   PAW_PBE O 08Apr2002                    

 ----------------------------------------------------------------------------- 
|                                                                             |
|           W    W    AA    RRRRR   N    N  II  N    N   GGGG   !!!           |
|           W    W   A  A   R    R  NN   N  II  NN   N  G    G  !!!           |
|           W    W  A    A  R    R  N N  N  II  N N  N  G       !!!           |
|           W WW W  AAAAAA  RRRRR   N  N N  II  N  N N  G  GGG   !            |
|           WW  WW  A    A  R   R   N   NN  II  N   NN  G    G                |
|           W    W  A    A  R    R  N    N  II  N    N   GGGG   !!!           |
|                                                                             |
|      For optimal performance we recommend to set                            |
|        NCORE= 4 - approx SQRT( number of cores)                             |
|      NCORE specifies how many cores store one orbital (NPAR=cpu/NCORE).     |
|      This setting can  greatly improve the performance of VASP for DFT.     |
|      The default, NPAR=number of cores might be grossly inefficient         |
|      on modern multi-core architectures or massively parallel machines.     |
|      Do your own testing !!!!                                               |
|      Unfortunately you need to use the default for GW and RPA calculations. |
|      (for HF NCORE is supported but not extensively tested yet)             |
|                                                                             |
 ----------------------------------------------------------------------------- 

 POTCAR:   PAW_PBE Y_sv 06Sep2000                 
   VRHFIN =Y: 4s4p5s4d                                                          
   LEXCH  = PE                                                                  
   EATOM  =  1046.2256 eV,   76.8954 Ry                                         
                                                                                
   TITEL  = PAW_PBE Y_sv 06Sep2000                                              
   LULTRA =        F    use ultrasoft PP ?                                      
   IUNSCR =        1    unscreen: 0-lin 1-nonlin 2-no                           
   RPACOR =    2.200    partial core radius                                     
   POMASS =   88.906; ZVAL   =   11.000    mass and valenz                      
   RCORE  =    2.600    outmost cutoff radius                                   
   RWIGS  =    3.430; RWIGS  =    1.815    wigner-seitz radius (au A)           
   ENMAX  =  211.641; ENMIN  =  158.731 eV                                      
   RCLOC  =    2.212    cutoff for local pot                                    
   LCOR   =        T    correct aug charges                                     
   LPAW   =        T    paw PP                                                  
   EAUG   =  363.258                                                            
   DEXC   =     .000                                                            
   RMAX   =    3.169    core radius for proj-oper                               
   RAUG   =    1.300    factor for augmentation sphere                          
   RDEP   =    2.745    radius for radial grids                                 
   QCUT   =   -3.944; QGAM   =    7.888    optimization parameters              
                                                                                
   Description                                                                  
     l     E      TYP  RCUT    TYP  RCUT                                        
     0   .000     23  2.600                                                     
     0   .000     23  2.600                                                     
     1   .000     23  2.600                                                     
     1   .000     23  2.600                                                     
     2   .000     23  2.600                                                     
     2   .000     23  2.600                                                     
     3   .000      7   .000                                                     
  local pseudopotential read in
  partial core-charges read in
  atomic valenz-charges read in
  non local Contribution for L=           0  read in
    real space projection operators read in
  non local Contribution for L=           0  read in
    real space projection operators read in
  non local Contribution for L=           1  read in
    real space projection operators read in
  non local Contribution for L=           1  read in
    real space projection operators read in
  non local Contribution for L=           2  read in
    real space projection operators read in
  non local Contribution for L=           2  read in
    real space projection operators read in
    PAW grid and wavefunctions read in
 
   number of l-projection  operators is LMAX  =           6
   number of lm-projection operators is LMMAX =          18
 
 POTCAR:   PAW_PBE N 08Apr2002                    
   VRHFIN =N: s2p3                                                              
   LEXCH  = PE                                                                  
   EATOM  =   264.5486 eV,   19.4438 Ry                                         
                                                                                
   TITEL  = PAW_PBE N 08Apr2002                                                 
   LULTRA =        F    use ultrasoft PP ?                                      
   IUNSCR =        0    unscreen: 0-lin 1-nonlin 2-no                           
   RPACOR =     .000    partial core radius                                     
   POMASS =   14.001; ZVAL   =    5.000    mass and valenz                      
   RCORE  =    1.500    outmost cutoff radius                                   
   RWIGS  =    1.400; RWIGS  =     .741    wigner-seitz radius (au A)           
   ENMAX  =  400.000; ENMIN  =  300.000 eV                                      
   ICORE  =        2    local potential                                         
   LCOR   =        T    correct aug charges                                     
   LPAW   =        T    paw PP                                                  
   EAUG   =  627.112                                                            
   DEXC   =     .000                                                            
   RMAX   =    2.247    core radius for proj-oper                               
   RAUG   =    1.300    factor for augmentation sphere                          
   RDEP   =    1.514    radius for radial grids                                 
   QCUT   =   -5.562; QGAM   =   11.124    optimization parameters              
                                                                                
   Description                                                                  
     l     E      TYP  RCUT    TYP  RCUT                                        
     0   .000     23  1.200                                                     
     0   .000     23  1.200                                                     
     1   .000     23  1.500                                                     
     1   .700     23  1.500                                                     
     2   .000      7  1.500                                                     
  local pseudopotential read in
  atomic valenz-charges read in
  non local Contribution for L=           0  read in
    real space projection operators read in
  non local Contribution for L=           0  read in
    real space projection operators read in
  non local Contribution for L=           1  read in
    real space projection operators read in
  non local Contribution for L=           1  read in
    real space projection operators read in
    PAW grid and wavefunctions read in
 
   number of l-projection  operators is LMAX  =           4
   number of lm-projection operators is LMMAX =           8
 
 POTCAR:   PAW_PBE O 08Apr2002                    
   VRHFIN =O: s2p4                                                              
   LEXCH  = PE                                                                  
   EATOM  =   432.3788 eV,   31.7789 Ry                                         
                                                                                
   TITEL  = PAW_PBE O 08Apr2002                                                 
   LULTRA =        F    use ultrasoft PP ?                                      
   IUNSCR =        0    unscreen: 0-lin 1-nonlin 2-no                           
   RPACOR =     .000    partial core radius                                     
   POMASS =   16.000; ZVAL   =    6.000    mass and valenz                      
   RCORE  =    1.520    outmost cutoff radius                                   
   RWIGS  =    1.550; RWIGS  =     .820    wigner-seitz radius (au A)           
   ENMAX  =  400.000; ENMIN  =  300.000 eV                                      
   ICORE  =        2    local potential                                         
   LCOR   =        T    correct aug charges                                     
   LPAW   =        T    paw PP                                                  
   EAUG   =  605.392                                                            
   DEXC   =     .000                                                            
   RMAX   =    2.264    core radius for proj-oper                               
   RAUG   =    1.300    factor for augmentation sphere                          
   RDEP   =    1.550    radius for radial grids                                 
   QCUT   =   -5.520; QGAM   =   11.041    optimization parameters              
                                                                                
   Description                                                                  
     l     E      TYP  RCUT    TYP  RCUT                                        
     0   .000     23  1.200                                                     
     0  -.700     23  1.200                                                     
     1   .000     23  1.520                                                     
     1   .600     23  1.520                                                     
     2   .000      7  1.500                                                     
  local pseudopotential read in
  atomic valenz-charges read in
  non local Contribution for L=           0  read in
    real space projection operators read in
  non local Contribution for L=           0  read in
    real space projection operators read in
  non local Contribution for L=           1  read in
    real space projection operators read in
  non local Contribution for L=           1  read in
    real space projection operators read in
    PAW grid and wavefunctions read in
 
   number of l-projection  operators is LMAX  =           4
   number of lm-projection operators is LMMAX =           8
 

 ----------------------------------------------------------------------------- 
|                                                                             |
|  ADVICE TO THIS USER RUNNING 'VASP/VAMP'   (HEAR YOUR MASTER'S VOICE ...):  |
|                                                                             |
|      You have a (more or less) 'small supercell' and for smaller cells      |
|      it is recommended  to use the reciprocal-space projection scheme!      |
|      The real space optimization is not  efficient for small cells and it   |
|      is also less accurate ...                                              |
|      Therefore set LREAL=.FALSE. in the  INCAR file                         |
|                                                                             |
 ----------------------------------------------------------------------------- 

 Optimization of the real space projectors (new method)

 maximal supplied QI-value         = 14.36
 optimisation between [QCUT,QGAM] = [ 10.34, 20.82] = [ 29.94,121.44] Ry 
 Optimized for a Real-space Cutoff    1.72 Angstroem

   l    n(q)    QCUT    max X(q) W(low)/X(q) W(high)/X(q)  e(spline) 
   0     11    10.341     8.406    0.16E-04    0.10E-05    0.59E-08
   0     11    10.341    10.301    0.39E-04    0.10E-04    0.56E-07
   1     10    10.341     4.485    0.28E-05    0.25E-05    0.25E-07
   1     10    10.341    11.894    0.13E-04    0.46E-04    0.22E-06
   2     10    10.341     4.489    0.11E-04    0.17E-04    0.54E-07
   2     10    10.341    42.100    0.17E-03    0.13E-03    0.40E-06
 Optimization of the real space projectors (new method)

 maximal supplied QI-value         = 25.13
 optimisation between [QCUT,QGAM] = [ 10.30, 20.86] = [ 29.74,121.86] Ry 
 Optimized for a Real-space Cutoff    1.44 Angstroem

   l    n(q)    QCUT    max X(q) W(low)/X(q) W(high)/X(q)  e(spline) 
   0      9    10.305     4.511    0.36E-04    0.16E-04    0.94E-07
   0      9    10.305    37.799    0.22E-03    0.22E-03    0.34E-06
   1      8    10.305     2.478    0.24E-04    0.31E-04    0.10E-06
   1      8    10.305     6.023    0.26E-03    0.86E-03    0.25E-05
 Optimization of the real space projectors (new method)

 maximal supplied QI-value         = 24.76
 optimisation between [QCUT,QGAM] = [ 10.40, 20.79] = [ 30.27,121.09] Ry 
 Optimized for a Real-space Cutoff    1.28 Angstroem

   l    n(q)    QCUT    max X(q) W(low)/X(q) W(high)/X(q)  e(spline) 
   0      8    10.397     4.192    0.56E-04    0.75E-04    0.71E-07
   0      8    10.397     8.473    0.39E-03    0.67E-03    0.19E-06
   1      7    10.397     2.474    0.11E-03    0.88E-04    0.32E-07
   1      7    10.397     3.912    0.41E-03    0.44E-03    0.12E-06
 PAW_PBE Y_sv 06Sep2000                 :
 energy of atom  1       EATOM=-1046.2256
 kinetic energy error for atom=    0.0022 (will be added to EATOM!!)
 PAW_PBE N 08Apr2002                    :
 energy of atom  2       EATOM= -264.5486
 kinetic energy error for atom=    0.0527 (will be added to EATOM!!)
 PAW_PBE O 08Apr2002                    :
 energy of atom  3       EATOM= -432.3788
 kinetic energy error for atom=    0.0819 (will be added to EATOM!!)
 
 
 POSCAR: Y2N                                     
  positions in direct lattice
  velocities in cartesian coordinates
 exchange correlation table for  LEXCH =        8
   RHO(1)=    0.500       N(1)  =     2000
   RHO(2)=  100.500       N(2)  =     4000
 


--------------------------------------------------------------------------------------------------------


 ion  position               nearest neighbor table
   1  0.000  0.000  0.068-   4 2.25   4 2.25   4 2.25   3 2.42   3 2.42   3 2.42   2 3.35   2 3.35
                             2 3.35
   2  0.667  0.333  0.251-   5 2.25   5 2.25   5 2.25   3 2.42   3 2.42   3 2.42   1 3.35   1 3.35
                             1 3.35
   3  0.333  0.667  0.159-   2 2.42   2 2.42   1 2.42   1 2.42   2 2.42   1 2.42
   4  0.667  0.333  0.000-   1 2.25   1 2.25   1 2.25
   5  0.000  0.000  0.319-   2 2.25   2 2.25   2 2.25
 
  LATTYP: Found a hexagonal cell.
 ALAT       =     3.4814593510
 C/A-ratio  =     4.2168282668
  
  Lattice vectors:
  
 A1 = (   3.4814593510,   0.0000000000,   0.0000000000)
 A2 = (  -1.7407296755,   3.0150322402,   0.0000000000)
 A3 = (   0.0000000000,   0.0000000000,  14.6807162010)


Analysis of symmetry for initial positions (statically):
=====================================================================
 Subroutine PRICEL returns:
 Original cell was already a primitive cell.
 

 Routine SETGRP: Setting up the symmetry group for a 
 hexagonal supercell.


 Subroutine GETGRP returns: Found 12 space group operations
 (whereof  6 operations were pure point group operations)
 out of a pool of 24 trial point group operations.


The static configuration has the point symmetry C_3v.
 The point group associated with its full space group is D_3d.


Analysis of symmetry for dynamics (positions and initial velocities):
=====================================================================
 Subroutine PRICEL returns:
 Original cell was already a primitive cell.
 

 Routine SETGRP: Setting up the symmetry group for a 
 hexagonal supercell.


 Subroutine GETGRP returns: Found 12 space group operations
 (whereof  6 operations were pure point group operations)
 out of a pool of 24 trial point group operations.


The dynamic configuration has the point symmetry C_3v.
 The point group associated with its full space group is D_3d.


Analysis of constrained symmetry for selective dynamics:
=====================================================================
 Subroutine PRICEL returns:
 Original cell was already a primitive cell.
 

 Routine SETGRP: Setting up the symmetry group for a 
 hexagonal supercell.


 Subroutine GETGRP returns: Found 12 space group operations
 (whereof  6 operations were pure point group operations)
 out of a pool of 24 trial point group operations.


The constrained configuration has the point symmetry C_3v.
 The point group associated with its full space group is D_3d.


Analysis of magnetic symmetry:
=====================================================================
 Subroutine PRICEL returns:
 Original cell was already a primitive cell.
 

 Subroutine MAGSYM returns: Found 12 space group operations
 (whereof  6 operations were pure point group operations)
 out of a pool of 12 trial space group operations
 (whereof  6 operations were pure point group operations)
 and found also     1 'primitive' translations


The magnetic configuration has the point symmetry C_3v.
 The point group associated with its full space group is D_3d.
 
 
 KPOINTS: K-Points                                

Automatic generation of k-mesh.
Space group operators:
 irot       det(A)        alpha          n_x          n_y          n_z        tau_x        tau_y        tau_z
    1     1.000000     0.000000     1.000000     0.000000     0.000000     0.000000     0.000000     0.000000
    2     1.000000   120.000000     0.000000     0.000000    -1.000000     0.000000     0.000000     0.000000
    3     1.000000   120.000000     0.000000     0.000000     1.000000     0.000000     0.000000     0.000000
    4    -1.000000   179.999999     1.000000     0.000000     0.000000     0.000000     0.000000     0.000000
    5    -1.000000   180.000000    -0.500000     0.866025     0.000000     0.000000     0.000000     0.000000
    6    -1.000000   180.000000     0.500000     0.866025     0.000000     0.000000     0.000000     0.000000
    7    -1.000000     0.000000     1.000000     0.000000     0.000000     0.666667     0.333333     0.318834
    8    -1.000000   120.000000     0.000000     0.000000    -1.000000     0.666667     0.333333     0.318834
    9    -1.000000   120.000000     0.000000     0.000000     1.000000     0.666667     0.333333     0.318834
   10     1.000000   179.999999     1.000000     0.000000     0.000000     0.666667     0.333333     0.318834
   11     1.000000   180.000000    -0.500000     0.866025     0.000000     0.666667     0.333333     0.318834
   12     1.000000   180.000000     0.500000     0.866025     0.000000     0.666667     0.333333     0.318834
 
 Subroutine IBZKPT returns following result:
 ===========================================
 
 Found      8 irreducible k-points:
 
 Following reciprocal coordinates:
            Coordinates               Weight
  0.000000  0.000000  0.000000      1.000000
  0.142857  0.000000  0.000000      6.000000
  0.285714  0.000000  0.000000      6.000000
  0.428571  0.000000  0.000000      6.000000
  0.142857  0.142857  0.000000      6.000000
  0.285714  0.142857  0.000000     12.000000
  0.428571  0.142857  0.000000      6.000000
  0.285714  0.285714  0.000000      6.000000
 
 Following cartesian coordinates:
            Coordinates               Weight
  0.000000  0.000000  0.000000      1.000000
  0.041034  0.023691  0.000000      6.000000
  0.082067  0.047382  0.000000      6.000000
  0.123101  0.071072  0.000000      6.000000
  0.041034  0.071072  0.000000      6.000000
  0.082067  0.094763  0.000000     12.000000
  0.123101  0.118454  0.000000      6.000000
  0.082067  0.142145  0.000000      6.000000
 


--------------------------------------------------------------------------------------------------------




 Dimension of arrays:
   k-points           NKPTS =      8   k-points in BZ     NKDIM =      8   number of bands    NBANDS=     32
   number of dos      NEDOS =    301   number of ions     NIONS =      5
   non local maximal  LDIM  =      6   non local SUM 2l+1 LMDIM =     18
   total plane-waves  NPLWV =  25920
   max r-space proj   IRMAX =   3615   max aug-charges    IRDMAX=  10206
   dimension x,y,z NGX =    18 NGY =   18 NGZ =   80
   dimension x,y,z NGXF=    36 NGYF=   36 NGZF=  160
   support grid    NGXF=    36 NGYF=   36 NGZF=  160
   ions per type =               2   1   2
 NGX,Y,Z   is equivalent  to a cutoff of   8.60,  8.60,  9.06 a.u.
 NGXF,Y,Z  is equivalent  to a cutoff of  17.19, 17.19, 18.12 a.u.


 I would recommend the setting:
   dimension x,y,z NGX =    17 NGY =   17 NGZ =   73
 SYSTEM =  Y2N1O2                                  
 POSCAR =  Y2N                                     

 Startparameter for this run:
   NWRITE =      2    write-flag & timer
   PREC   = normal    normal or accurate (medium, high low for compatibility)
   ISTART =      0    job   : 0-new  1-cont  2-samecut
   ICHARG =      2    charge: 1-file 2-atom 10-const
   ISPIN  =      2    spin polarized calculation?
   LNONCOLLINEAR =      F non collinear calculations
   LSORBIT =      F    spin-orbit coupling
   INIWAV =      1    electr: 0-lowe 1-rand  2-diag
   LASPH  =      F    aspherical Exc in radial PAW
   METAGGA=      F    non-selfconsistent MetaGGA calc.

 Electronic Relaxation 1
   ENCUT  =  415.0 eV  30.50 Ry    5.52 a.u.   5.78  5.78 24.39*2*pi/ulx,y,z
   ENINI  =  415.0     initial cutoff
   ENAUG  =  627.1 eV  augmentation charge cutoff
   NELM   =    101;   NELMIN=  2; NELMDL= -5     # of ELM steps 
   EDIFF  = 0.1E-05   stopping-criterion for ELM
   LREAL  =      T    real-space projection
   NLSPLINE    = F    spline interpolate recip. space projectors
   LCOMPAT=      F    compatible to vasp.4.4
   GGA_COMPAT  = T    GGA compatible to vasp.4.4-vasp.4.6
   LMAXPAW     = -100 max onsite density
   LMAXMIX     =    2 max onsite mixed and CHGCAR
   VOSKOWN=      0    Vosko Wilk Nusair interpolation
   ROPT   =   -0.00050  -0.00050  -0.00050
 Ionic relaxation
   EDIFFG = -.1E-01   stopping-criterion for IOM
   NSW    =    101    number of steps for IOM
   NBLOCK =      1;   KBLOCK =    101    inner block; outer block 
   IBRION =      2    ionic relax: 0-MD 1-quasi-New 2-CG
   NFREE  =      1    steps in history (QN), initial steepest desc. (CG)
   ISIF   =      4    stress and relaxation
   IWAVPR =     11    prediction:  0-non 1-charg 2-wave 3-comb
   ISYM   =      2    0-nonsym 1-usesym 2-fastsym
   LCORR  =      T    Harris-Foulkes like correction to forces

   POTIM  = 0.5000    time-step for ionic-motion
   TEIN   =    0.0    initial temperature
   TEBEG  =    0.0;   TEEND  =   0.0 temperature during run
   SMASS  =  -3.00    Nose mass-parameter (am)
   estimated Nose-frequenzy (Omega)   =  0.10E-29 period in steps =****** mass=  -0.277E-27a.u.
   SCALEE = 1.0000    scale energy and forces
   NPACO  =    256;   APACO  = 16.0  distance and # of slots for P.C.
   PSTRESS=    0.0 pullay stress

  Mass of Ions in am
   POMASS =  88.91 14.00 16.00
  Ionic Valenz
   ZVAL   =  11.00  5.00  6.00
  Atomic Wigner-Seitz radii
   RWIGS  =  -1.00 -1.00 -1.00
  virtual crystal weights 
   VCA    =   1.00  1.00  1.00
   NELECT =      39.0000    total number of electrons
   NUPDOWN=      -1.0000    fix difference up-down

 DOS related values:
   EMIN   =  10.00;   EMAX   =-10.00  energy-range for DOS
   EFERMI =   0.00
   ISMEAR =     0;   SIGMA  =   0.04  broadening in eV -4-tet -1-fermi 0-gaus

 Electronic relaxation 2 (details)
   IALGO  =     38    algorithm
   LDIAG  =      T    sub-space diagonalisation (order eigenvalues)
   LSUBROT=      F    optimize rotation matrix (better conditioning)
   TURBO    =      0    0=normal 1=particle mesh
   IRESTART =      0    0=no restart 2=restart with 2 vectors
   NREBOOT  =      0    no. of reboots
   NMIN     =      0    reboot dimension
   EREF     =   0.00    reference energy to select bands
   IMIX   =      4    mixing-type and parameters
     AMIX     =   0.40;   BMIX     =  1.00
     AMIX_MAG =   1.60;   BMIX_MAG =  1.00
     AMIN     =   0.10
     WC   =   100.;   INIMIX=   1;  MIXPRE=   1;  MAXMIX= -45

 Intra band minimization:
   WEIMIN = 0.0010     energy-eigenvalue tresh-hold
   EBREAK =  0.78E-08  absolut break condition
   DEPER  =   0.30     relativ break condition  

   TIME   =   0.40     timestep for ELM

  volume/ion in A,a.u.               =      30.82       207.98
  Fermi-wavevector in a.u.,A,eV,Ry     =   1.035530  1.956869 14.589843  1.072323
  Thomas-Fermi vector in A             =   2.169878
 
 Write flags
   LWAVE  =      T    write WAVECAR
   LCHARG =      T    write CHGCAR
   LVTOT  =      F    write LOCPOT, total local potential
   LVHAR  =      F    write LOCPOT, Hartree potential only
   LELF   =      F    write electronic localiz. function (ELF)
   LORBIT =      0    0 simple, 1 ext, 2 COOP (PROOUT)


 Dipole corrections
   LMONO  =      F    monopole corrections only (constant potential shift)
   LDIPOL =      F    correct potential (dipole corrections)
   IDIPOL =      0    1-x, 2-y, 3-z, 4-all directions 
   EPSILON=  1.0000000 bulk dielectric constant

 Exchange correlation treatment:
   GGA     =    PE    GGA type
   LEXCH   =     8    internal setting for exchange type
   VOSKOWN=      0    Vosko Wilk Nusair interpolation
   LHFCALC =     F    Hartree Fock is set to
   LHFONE  =     F    Hartree Fock one center treatment
   AEXX    =    0.0000 exact exchange contribution

 Linear response parameters
   LEPSILON=     F    determine dielectric tensor
   LRPA    =     F    only Hartree local field effects (RPA)
   LNABLA  =     F    use nabla operator in PAW spheres
   LVEL    =     F    velocity operator in full k-point grid
   LINTERFAST=   F  fast interpolation
   KINTER  =     0    interpolate to denser k-point grid
   CSHIFT  =0.1000    complex shift for real part using Kramers Kronig
   OMEGAMAX=  -1.0    maximum frequency
   DEG_THRESHOLD= 0.2000000E-02 threshold for treating states as degnerate
   RTIME   =    0.100 relaxation time in fs

 Orbital magnetization related:
   ORBITALMAG=     F  switch on orbital magnetization
   LCHIMAG   =     F  perturbation theory with respect to B field
   DQ        =  0.001000  dq finite difference perturbation B field



--------------------------------------------------------------------------------------------------------


 conjugate gradient relaxation of ions
   using selective dynamics as specified on POSCAR
 charge density and potential will be updated during run
 spin polarized calculation
 Variant of blocked Davidson
 Davidson routine will perform the subspace rotation
 perform sub-space diagonalisation
    after iterative eigenvector-optimisation
 modified Broyden-mixing scheme, WC =      100.0
 initial mixing is a Kerker type mixing with AMIX =  0.4000 and BMIX =      1.0000
 Hartree-type preconditioning will be used
 using additional bands           12
 real space projection scheme for non local part
 use partial core corrections
 calculate Harris-corrections to forces 
   (improved forces if not selfconsistent)
 use gradient corrections 
 use of overlap-Matrix (Vanderbilt PP)
 Gauss-broadening in eV      SIGMA  =   0.04


--------------------------------------------------------------------------------------------------------


  energy-cutoff  :      415.00
  volume of cell :      154.10
      direct lattice vectors                 reciprocal lattice vectors
     3.481459351  0.000000000  0.000000000     0.287235868  0.165835706  0.000000000
    -1.740729675  3.015032240  0.000000000     0.000000000  0.331671412  0.000000000
     0.000000000  0.000000000 14.680716201     0.000000000  0.000000000  0.068116568

  length of vectors
     3.481459351  3.481459351 14.680716201     0.331671412  0.331671412  0.068116568


 
 k-points in units of 2pi/SCALE and weight: K-Points                                
   0.00000000  0.00000000  0.00000000       0.020
   0.04103370  0.02369082  0.00000000       0.122
   0.08206739  0.04738163  0.00000000       0.122
   0.12310109  0.07107245  0.00000000       0.122
   0.04103370  0.07107245  0.00000000       0.122
   0.08206739  0.09476326  0.00000000       0.245
   0.12310109  0.11845408  0.00000000       0.122
   0.08206739  0.14214489  0.00000000       0.122
 
 k-points in reciprocal lattice and weights: K-Points                                
   0.00000000  0.00000000  0.00000000       0.020
   0.14285714  0.00000000  0.00000000       0.122
   0.28571429  0.00000000  0.00000000       0.122
   0.42857143  0.00000000  0.00000000       0.122
   0.14285714  0.14285714  0.00000000       0.122
   0.28571429  0.14285714  0.00000000       0.245
   0.42857143  0.14285714  0.00000000       0.122
   0.28571429  0.28571429  0.00000000       0.122
 
 position of ions in fractional coordinates (direct lattice) 
   0.00000000  0.00000000  0.06811657
   0.66666667  0.33333333  0.25071775
   0.33333333  0.66666667  0.15941716
   0.66666667  0.33333333  0.00000000
   0.00000000  0.00000000  0.31883432
 
 position of ions in cartesian coordinates  (Angst):
   0.00000000  0.00000000  1.00000000
   1.74072968  1.00501075  3.68071620
   0.00000000  2.01002149  2.34035810
   1.74072968  1.00501075  0.00000000
   0.00000000  0.00000000  4.68071620
 


--------------------------------------------------------------------------------------------------------


 k-point  1 :   0.0000 0.0000 0.0000  plane waves:    2923
 k-point  2 :   0.1429 0.0000 0.0000  plane waves:    2960
 k-point  3 :   0.2857 0.0000 0.0000  plane waves:    2946
 k-point  4 :   0.4286 0.0000 0.0000  plane waves:    2972
 k-point  5 :   0.1429 0.1429 0.0000  plane waves:    2950
 k-point  6 :   0.2857 0.1429 0.0000  plane waves:    2973
 k-point  7 :   0.4286 0.1429 0.0000  plane waves:    2958
 k-point  8 :   0.2857 0.2857 0.0000  plane waves:    2966

 maximum and minimum number of plane-waves per node :      2973     2923

 maximum number of plane-waves:      2973
 maximum index in each direction: 
   IXMAX=    5   IYMAX=    5   IZMAX=   24
   IXMIN=   -6   IYMIN=   -6   IZMIN=  -24

 WARNING: aliasing errors must be expected set NGX to  24 to avoid them
 WARNING: aliasing errors must be expected set NGY to  24 to avoid them
 WARNING: aliasing errors must be expected set NGZ to  98 to avoid them
 aliasing errors are usually negligible using standard VASP settings
 and one can safely disregard these warnings

 serial   3D FFT for wavefunctions
 parallel 3D FFT for charge:
    minimum data exchange during FFTs selected (reduces bandwidth)


 total amount of memory used by VASP on root node    43379. kBytes
========================================================================

   base      :      30000. kBytes
   nonlr-proj:       1748. kBytes
   fftplans  :       2098. kBytes
   grid      :       6266. kBytes
   one-center:        155. kBytes
   wavefun   :       3112. kBytes
 
     INWAV:  cpu time    0.0000: real time    0.0001
 Broyden mixing: mesh for mixing (old mesh)
   NGX = 11   NGY = 11   NGZ = 49
  (NGX  = 36   NGY  = 36   NGZ  =160)
  gives a total of   5929 points

 initial charge density was supplied:
 charge density of overlapping atoms calculated
 number of electron      39.0000000 magnetization       5.0000000
 keeping initial charge density in first step


--------------------------------------------------------------------------------------------------------


 Maximum index for non-local projection operator         3475
 Maximum index for augmentation-charges         1473 (set IRDMAX)


--------------------------------------------------------------------------------------------------------


 First call to EWALD:  gamma=   0.331
 Maximum number of real-space cells 5x 5x 1
 Maximum number of reciprocal cells 2x 2x 7

 FEWALD executed in parallel
    FEWALD:  cpu time    0.0040: real time    0.0021


----------------------------------------- Iteration    1(   1)  ---------------------------------------


    POTLOK:  cpu time    0.0840: real time    0.0849
    SETDIJ:  cpu time    0.0080: real time    0.0097
     EDDAV:  cpu time    0.9961: real time    1.0207
       DOS:  cpu time    0.0040: real time    0.0007
    --------------------------------------------
      LOOP:  cpu time    1.0961: real time    1.1285

 eigenvalue-minimisations  :  1048
 total energy-change (2. order) : 0.2514483E+03  (-0.1677899E+04)
 number of electron      39.0000000 magnetization       5.0000000
 augmentation part       39.0000000 magnetization       5.0000000

 Free energy of the ion-electron system (eV)
  ---------------------------------------------------
  alpha Z        PSCENC =       119.54541683
  Ewald energy   TEWEN  =      3188.33900738
  -Hartree energ DENC   =     -6071.11864070
  -exchange      EXHF   =         0.00000000
  -V(xc)+E(xc)   XCENC  =       160.93287444
  PAW double counting   =      1963.16040053    -1925.36309326
  entropy T*S    EENTRO =        -0.00184622
  eigenvalues    EBANDS =      -405.58227640
  atomic energy  EATOM  =      3221.53645933
  Solvation  Ediel_sol  =         0.00000000
  ---------------------------------------------------
  free energy    TOTEN  =       251.44830195 eV

  energy without entropy =      251.45014816  energy(sigma->0) =      251.44922505


--------------------------------------------------------------------------------------------------------




----------------------------------------- Iteration    1(   2)  ---------------------------------------


     EDDAV:  cpu time    1.4041: real time    1.4323
       DOS:  cpu time    0.0000: real time    0.0007
    --------------------------------------------
      LOOP:  cpu time    1.4041: real time    1.4376

 eigenvalue-minimisations  :  1336
 total energy-change (2. order) :-0.2744356E+03  (-0.2659643E+03)
 number of electron      39.0000000 magnetization       5.0000000
 augmentation part       39.0000000 magnetization       5.0000000

 Free energy of the ion-electron system (eV)
  ---------------------------------------------------
  alpha Z        PSCENC =       119.54541683
  Ewald energy   TEWEN  =      3188.33900738
  -Hartree energ DENC   =     -6071.11864070
  -exchange      EXHF   =         0.00000000
  -V(xc)+E(xc)   XCENC  =       160.93287444
  PAW double counting   =      1963.16040053    -1925.36309326
  entropy T*S    EENTRO =        -0.00170735
  eigenvalues    EBANDS =      -680.01800906
  atomic energy  EATOM  =      3221.53645933
  Solvation  Ediel_sol  =         0.00000000
  ---------------------------------------------------
  free energy    TOTEN  =       -22.98729184 eV

  energy without entropy =      -22.98558450  energy(sigma->0) =      -22.98643817


--------------------------------------------------------------------------------------------------------




----------------------------------------- Iteration    1(   3)  ---------------------------------------


     EDDAV:  cpu time    1.6561: real time    1.6850
       DOS:  cpu time    0.0000: real time    0.0008
    --------------------------------------------
      LOOP:  cpu time    1.6561: real time    1.7002

 eigenvalue-minimisations  :  1544
 total energy-change (2. order) :-0.2349254E+02  (-0.2320837E+02)
 number of electron      39.0000000 magnetization       5.0000000
 augmentation part       39.0000000 magnetization       5.0000000

 Free energy of the ion-electron system (eV)
  ---------------------------------------------------
  alpha Z        PSCENC =       119.54541683
  Ewald energy   TEWEN  =      3188.33900738
  -Hartree energ DENC   =     -6071.11864070
  -exchange      EXHF   =         0.00000000
  -V(xc)+E(xc)   XCENC  =       160.93287444
  PAW double counting   =      1963.16040053    -1925.36309326
  entropy T*S    EENTRO =        -0.00185934
  eigenvalues    EBANDS =      -703.51039439
  atomic energy  EATOM  =      3221.53645933
  Solvation  Ediel_sol  =         0.00000000
  ---------------------------------------------------
  free energy    TOTEN  =       -46.47982917 eV

  energy without entropy =      -46.47796983  energy(sigma->0) =      -46.47889950


--------------------------------------------------------------------------------------------------------




----------------------------------------- Iteration    1(   4)  ---------------------------------------


     EDDAV:  cpu time    1.7161: real time    1.7516
       DOS:  cpu time    0.0000: real time    0.0007
    --------------------------------------------
      LOOP:  cpu time    1.7201: real time    1.7648

 eigenvalue-minimisations  :  1696
 total energy-change (2. order) :-0.1482622E+01  (-0.1478689E+01)
 number of electron      39.0000000 magnetization       5.0000000
 augmentation part       39.0000000 magnetization       5.0000000

 Free energy of the ion-electron system (eV)
  ---------------------------------------------------
  alpha Z        PSCENC =       119.54541683
  Ewald energy   TEWEN  =      3188.33900738
  -Hartree energ DENC   =     -6071.11864070
  -exchange      EXHF   =         0.00000000
  -V(xc)+E(xc)   XCENC  =       160.93287444
  PAW double counting   =      1963.16040053    -1925.36309326
  entropy T*S    EENTRO =        -0.00190531
  eigenvalues    EBANDS =      -704.99296995
  atomic energy  EATOM  =      3221.53645933
  Solvation  Ediel_sol  =         0.00000000
  ---------------------------------------------------
  free energy    TOTEN  =       -47.96245070 eV

  energy without entropy =      -47.96054539  energy(sigma->0) =      -47.96149804


--------------------------------------------------------------------------------------------------------




----------------------------------------- Iteration    1(   5)  ---------------------------------------


     EDDAV:  cpu time    1.9161: real time    1.9304
       DOS:  cpu time    0.0000: real time    0.0006
    CHARGE:  cpu time    0.0560: real time    0.0563
    MIXING:  cpu time    0.0040: real time    0.0032
    --------------------------------------------
      LOOP:  cpu time    1.9801: real time    2.0006

 eigenvalue-minimisations  :  1472
 total energy-change (2. order) :-0.3401351E-01  (-0.3401145E-01)
 number of electron      38.9999911 magnetization       4.0091761
 augmentation part        6.2508221 magnetization       3.2734271

 Broyden mixing:
  rms(total) = 0.16281E+01    rms(broyden)= 0.16275E+01
  rms(prec ) = 0.18943E+01
  weight for this iteration     100.00

 Free energy of the ion-electron system (eV)
  ---------------------------------------------------
  alpha Z        PSCENC =       119.54541683
  Ewald energy   TEWEN  =      3188.33900738
  -Hartree energ DENC   =     -6071.11864070
  -exchange      EXHF   =         0.00000000
  -V(xc)+E(xc)   XCENC  =       160.93287444
  PAW double counting   =      1963.16040053    -1925.36309326
  entropy T*S    EENTRO =        -0.00190070
  eigenvalues    EBANDS =      -705.02698807
  atomic energy  EATOM  =      3221.53645933
  Solvation  Ediel_sol  =         0.00000000
  ---------------------------------------------------
  free energy    TOTEN  =       -47.99646421 eV

  energy without entropy =      -47.99456351  energy(sigma->0) =      -47.99551386


--------------------------------------------------------------------------------------------------------




----------------------------------------- Iteration    1(   6)  ---------------------------------------


    POTLOK:  cpu time    0.1040: real time    0.1063
    SETDIJ:  cpu time    0.0120: real time    0.0106
     EDDAV:  cpu time    1.7081: real time    1.7132
       DOS:  cpu time    0.0000: real time    0.0007
    CHARGE:  cpu time    0.0560: real time    0.0579
    MIXING:  cpu time    0.0040: real time    0.0038
    --------------------------------------------
      LOOP:  cpu time    1.8841: real time    1.9037

 eigenvalue-minimisations  :  1256
 total energy-change (2. order) : 0.8917045E+01  (-0.2811517E+01)
 number of electron      38.9999937 magnetization       3.3616436
 augmentation part        5.7706093 magnetization       2.4659886

 Broyden mixing:
  rms(total) = 0.59709E+00    rms(broyden)= 0.59588E+00
  rms(prec ) = 0.64028E+00
  weight for this iteration     100.00

 eigenvalues of (default mixing * dielectric matrix)
  average eigenvalue GAMMA=   0.8501
  0.8501

 Free energy of the ion-electron system (eV)
  ---------------------------------------------------
  alpha Z        PSCENC =       119.54541683
  Ewald energy   TEWEN  =      3188.33900738
  -Hartree energ DENC   =     -6108.04472282
  -exchange      EXHF   =         0.00000000
  -V(xc)+E(xc)   XCENC  =       165.01457634
  PAW double counting   =      2050.92501471    -2017.65109191
  entropy T*S    EENTRO =        -0.00133365
  eigenvalues    EBANDS =      -658.74274537
  atomic energy  EATOM  =      3221.53645933
  Solvation  Ediel_sol  =         0.00000000
  ---------------------------------------------------
  free energy    TOTEN  =       -39.07941915 eV

  energy without entropy =      -39.07808551  energy(sigma->0) =      -39.07875233


--------------------------------------------------------------------------------------------------------




----------------------------------------- Iteration    1(   7)  ---------------------------------------


    POTLOK:  cpu time    0.1080: real time    0.1046
    SETDIJ:  cpu time    0.0080: real time    0.0109
     EDDAV:  cpu time    1.9801: real time    1.9914
       DOS:  cpu time    0.0040: real time    0.0008
    CHARGE:  cpu time    0.0520: real time    0.0550
    MIXING:  cpu time    0.0040: real time    0.0035
    --------------------------------------------
      LOOP:  cpu time    2.1561: real time    2.1796

 eigenvalue-minimisations  :  1504
 total energy-change (2. order) :-0.3071737E+00  (-0.2897583E+00)
 number of electron      38.9999930 magnetization       2.6169856
 augmentation part        5.6419737 magnetization       1.7242424

 Broyden mixing:
  rms(total) = 0.40766E+00    rms(broyden)= 0.40758E+00
  rms(prec ) = 0.43616E+00
  weight for this iteration     100.00

 eigenvalues of (default mixing * dielectric matrix)
  average eigenvalue GAMMA=   0.9045
  0.9045  0.9045

 Free energy of the ion-electron system (eV)
  ---------------------------------------------------
  alpha Z        PSCENC =       119.54541683
  Ewald energy   TEWEN  =      3188.33900738
  -Hartree energ DENC   =     -6111.14447469
  -exchange      EXHF   =         0.00000000
  -V(xc)+E(xc)   XCENC  =       164.47040947
  PAW double counting   =      2075.63952236    -2042.66704527
  entropy T*S    EENTRO =        -0.00126986
  eigenvalues    EBANDS =      -655.10461842
  atomic energy  EATOM  =      3221.53645933
  Solvation  Ediel_sol  =         0.00000000
  ---------------------------------------------------
  free energy    TOTEN  =       -39.38659288 eV

  energy without entropy =      -39.38532301  energy(sigma->0) =      -39.38595795


--------------------------------------------------------------------------------------------------------




----------------------------------------- Iteration    1(   8)  ---------------------------------------


    POTLOK:  cpu time    0.1040: real time    0.1048
    SETDIJ:  cpu time    0.0120: real time    0.0106
     EDDAV:  cpu time    2.0241: real time    2.0379
       DOS:  cpu time    0.0000: real time    0.0008
    CHARGE:  cpu time    0.0600: real time    0.0601
    MIXING:  cpu time    0.0040: real time    0.0043
    --------------------------------------------
      LOOP:  cpu time    2.2041: real time    2.2332

 eigenvalue-minimisations  :  1400
 total energy-change (2. order) :-0.9243569E+00  (-0.5687862E-01)
 number of electron      38.9999932 magnetization       1.7922131
 augmentation part        5.6098212 magnetization       0.9153343

 Broyden mixing:
  rms(total) = 0.24951E+00    rms(broyden)= 0.24949E+00
  rms(prec ) = 0.27056E+00
  weight for this iteration     100.00

 eigenvalues of (default mixing * dielectric matrix)
  average eigenvalue GAMMA=   1.1302
  1.3901  1.2941  0.7065

 Free energy of the ion-electron system (eV)
  ---------------------------------------------------
  alpha Z        PSCENC =       119.54541683
  Ewald energy   TEWEN  =      3188.33900738
  -Hartree energ DENC   =     -6119.59576676
  -exchange      EXHF   =         0.00000000
  -V(xc)+E(xc)   XCENC  =       163.84168607
  PAW double counting   =      2107.56526342    -2073.50168974
  entropy T*S    EENTRO =        -0.00125960
  eigenvalues    EBANDS =      -648.04006672
  atomic energy  EATOM  =      3221.53645933
  Solvation  Ediel_sol  =         0.00000000
  ---------------------------------------------------
  free energy    TOTEN  =       -40.31094979 eV

  energy without entropy =      -40.30969018  energy(sigma->0) =      -40.31031999


--------------------------------------------------------------------------------------------------------




----------------------------------------- Iteration    1(   9)  ---------------------------------------


    POTLOK:  cpu time    0.1200: real time    0.1200
    SETDIJ:  cpu time    0.0120: real time    0.0117
     EDDAV:  cpu time    1.5961: real time    1.6196
       DOS:  cpu time    0.0000: real time    0.0007
    CHARGE:  cpu time    0.0520: real time    0.0527
    MIXING:  cpu time    0.0000: real time    0.0042
    --------------------------------------------
      LOOP:  cpu time    1.7881: real time    1.8232

 eigenvalue-minimisations  :  1304
 total energy-change (2. order) :-0.1070163E+01  (-0.6695525E-01)
 number of electron      38.9999930 magnetization       1.4207802
 augmentation part        5.6099243 magnetization       0.5733331

 Broyden mixing:
  rms(total) = 0.10107E+00    rms(broyden)= 0.10097E+00
  rms(prec ) = 0.10840E+00
  weight for this iteration     100.00

 eigenvalues of (default mixing * dielectric matrix)
  average eigenvalue GAMMA=   1.3253
  2.6228  1.0606  0.9558  0.6618

 Free energy of the ion-electron system (eV)
  ---------------------------------------------------
  alpha Z        PSCENC =       119.54541683
  Ewald energy   TEWEN  =      3188.33900738
  -Hartree energ DENC   =     -6130.74655534
  -exchange      EXHF   =         0.00000000
  -V(xc)+E(xc)   XCENC  =       163.16367870
  PAW double counting   =      2134.17032446    -2098.97999566
  entropy T*S    EENTRO =        -0.00178957
  eigenvalues    EBANDS =      -638.40765869
  atomic energy  EATOM  =      3221.53645933
  Solvation  Ediel_sol  =         0.00000000
  ---------------------------------------------------
  free energy    TOTEN  =       -41.38111256 eV

  energy without entropy =      -41.37932299  energy(sigma->0) =      -41.38021778


--------------------------------------------------------------------------------------------------------




----------------------------------------- Iteration    1(  10)  ---------------------------------------


    POTLOK:  cpu time    0.0880: real time    0.0912
    SETDIJ:  cpu time    0.0120: real time    0.0108
     EDDAV:  cpu time    1.2641: real time    1.2793
       DOS:  cpu time    0.0000: real time    0.0007
    CHARGE:  cpu time    0.0520: real time    0.0518
    MIXING:  cpu time    0.0040: real time    0.0035
    --------------------------------------------
      LOOP:  cpu time    1.4201: real time    1.4473

 eigenvalue-minimisations  :  1264
 total energy-change (2. order) :-0.3938642E+00  (-0.2850577E-01)
 number of electron      38.9999931 magnetization       1.2162196
 augmentation part        5.5897647 magnetization       0.3916528

 Broyden mixing:
  rms(total) = 0.61026E-01    rms(broyden)= 0.60995E-01
  rms(prec ) = 0.66951E-01
  weight for this iteration     100.00

 eigenvalues of (default mixing * dielectric matrix)
  average eigenvalue GAMMA=   1.3583
  2.8350  1.6364  0.8666  0.8327  0.6209

 Free energy of the ion-electron system (eV)
  ---------------------------------------------------
  alpha Z        PSCENC =       119.54541683
  Ewald energy   TEWEN  =      3188.33900738
  -Hartree energ DENC   =     -6135.66354390
  -exchange      EXHF   =         0.00000000
  -V(xc)+E(xc)   XCENC  =       163.02893327
  PAW double counting   =      2139.29325351    -2103.81330626
  entropy T*S    EENTRO =        -0.00161677
  eigenvalues    EBANDS =      -634.03958021
  atomic energy  EATOM  =      3221.53645933
  Solvation  Ediel_sol  =         0.00000000
  ---------------------------------------------------
  free energy    TOTEN  =       -41.77497681 eV

  energy without entropy =      -41.77336004  energy(sigma->0) =      -41.77416842


--------------------------------------------------------------------------------------------------------




----------------------------------------- Iteration    1(  11)  ---------------------------------------


    POTLOK:  cpu time    0.0880: real time    0.0898
    SETDIJ:  cpu time    0.0120: real time    0.0099
     EDDAV:  cpu time    1.3601: real time    1.3763
       DOS:  cpu time    0.0000: real time    0.0007
    CHARGE:  cpu time    0.0480: real time    0.0509
    MIXING:  cpu time    0.0040: real time    0.0036
    --------------------------------------------
      LOOP:  cpu time    1.5121: real time    1.5410

 eigenvalue-minimisations  :  1416
 total energy-change (2. order) :-0.2024511E+00  (-0.1893338E-01)
 number of electron      38.9999930 magnetization       1.0509637
 augmentation part        5.5866764 magnetization       0.2401484

 Broyden mixing:
  rms(total) = 0.28927E-01    rms(broyden)= 0.28884E-01
  rms(prec ) = 0.33375E-01
  weight for this iteration     100.00

 eigenvalues of (default mixing * dielectric matrix)
  average eigenvalue GAMMA=   1.4908
  3.5158  2.0758  0.9970  0.9970  0.7366  0.6227

 Free energy of the ion-electron system (eV)
  ---------------------------------------------------
  alpha Z        PSCENC =       119.54541683
  Ewald energy   TEWEN  =      3188.33900738
  -Hartree energ DENC   =     -6137.72527045
  -exchange      EXHF   =         0.00000000
  -V(xc)+E(xc)   XCENC  =       162.91485913
  PAW double counting   =      2134.10087109    -2098.50949966
  entropy T*S    EENTRO =        -0.00189115
  eigenvalues    EBANDS =      -632.17738043
  atomic energy  EATOM  =      3221.53645933
  Solvation  Ediel_sol  =         0.00000000
  ---------------------------------------------------
  free energy    TOTEN  =       -41.97742793 eV

  energy without entropy =      -41.97553678  energy(sigma->0) =      -41.97648235


--------------------------------------------------------------------------------------------------------




----------------------------------------- Iteration    1(  12)  ---------------------------------------


    POTLOK:  cpu time    0.0920: real time    0.0930
    SETDIJ:  cpu time    0.0080: real time    0.0105
     EDDAV:  cpu time    1.3961: real time    1.4174
       DOS:  cpu time    0.0040: real time    0.0012
    CHARGE:  cpu time    0.0520: real time    0.0561
    MIXING:  cpu time    0.0040: real time    0.0036
    --------------------------------------------
      LOOP:  cpu time    1.5601: real time    1.5932

 eigenvalue-minimisations  :  1360
 total energy-change (2. order) :-0.2903180E-01  (-0.2820366E-02)
 number of electron      38.9999930 magnetization       1.0096955
 augmentation part        5.5907924 magnetization       0.2064178

 Broyden mixing:
  rms(total) = 0.13861E-01    rms(broyden)= 0.13830E-01
  rms(prec ) = 0.17918E-01
  weight for this iteration     100.00

 eigenvalues of (default mixing * dielectric matrix)
  average eigenvalue GAMMA=   1.4859
  3.7703  2.2928  1.2842  0.8376  0.8376  0.6345  0.7445

 Free energy of the ion-electron system (eV)
  ---------------------------------------------------
  alpha Z        PSCENC =       119.54541683
  Ewald energy   TEWEN  =      3188.33900738
  -Hartree energ DENC   =     -6139.04044455
  -exchange      EXHF   =         0.00000000
  -V(xc)+E(xc)   XCENC  =       162.89056193
  PAW double counting   =      2130.51930390    -2094.84911473
  entropy T*S    EENTRO =        -0.00194310
  eigenvalues    EBANDS =      -630.94570671
  atomic energy  EATOM  =      3221.53645933
  Solvation  Ediel_sol  =         0.00000000
  ---------------------------------------------------
  free energy    TOTEN  =       -42.00645972 eV

  energy without entropy =      -42.00451663  energy(sigma->0) =      -42.00548818


--------------------------------------------------------------------------------------------------------




----------------------------------------- Iteration    1(  13)  ---------------------------------------


    POTLOK:  cpu time    0.0920: real time    0.0909
    SETDIJ:  cpu time    0.0080: real time    0.0100
     EDDAV:  cpu time    1.2601: real time    1.2720
       DOS:  cpu time    0.0000: real time    0.0008
    CHARGE:  cpu time    0.0520: real time    0.0499
    MIXING:  cpu time    0.0040: real time    0.0036
    --------------------------------------------
      LOOP:  cpu time    1.4161: real time    1.4364

 eigenvalue-minimisations  :  1328
 total energy-change (2. order) :-0.8129512E-03  (-0.2085405E-03)
 number of electron      38.9999931 magnetization       0.9972737
 augmentation part        5.5885975 magnetization       0.1972818

 Broyden mixing:
  rms(total) = 0.58894E-02    rms(broyden)= 0.58728E-02
  rms(prec ) = 0.97124E-02
  weight for this iteration     100.00

 eigenvalues of (default mixing * dielectric matrix)
  average eigenvalue GAMMA=   1.4686
  3.8918  2.5158  1.4126  0.9235  0.9235  0.6416  0.7199  0.7199

 Free energy of the ion-electron system (eV)
  ---------------------------------------------------
  alpha Z        PSCENC =       119.54541683
  Ewald energy   TEWEN  =      3188.33900738
  -Hartree energ DENC   =     -6139.54811696
  -exchange      EXHF   =         0.00000000
  -V(xc)+E(xc)   XCENC  =       162.88598188
  PAW double counting   =      2129.55428303    -2093.93070808
  entropy T*S    EENTRO =        -0.00192043
  eigenvalues    EBANDS =      -630.38767565
  atomic energy  EATOM  =      3221.53645933
  Solvation  Ediel_sol  =         0.00000000
  ---------------------------------------------------
  free energy    TOTEN  =       -42.00727268 eV

  energy without entropy =      -42.00535224  energy(sigma->0) =      -42.00631246


--------------------------------------------------------------------------------------------------------




----------------------------------------- Iteration    1(  14)  ---------------------------------------


    POTLOK:  cpu time    0.0840: real time    0.0844
    SETDIJ:  cpu time    0.0080: real time    0.0098
     EDDAV:  cpu time    1.2441: real time    1.2538
       DOS:  cpu time    0.0000: real time    0.0008
    CHARGE:  cpu time    0.0520: real time    0.0499
    MIXING:  cpu time    0.0040: real time    0.0040
    --------------------------------------------
      LOOP:  cpu time    1.3921: real time    1.4147

 eigenvalue-minimisations  :  1232
 total energy-change (2. order) :-0.8552943E-03  (-0.3396744E-04)
 number of electron      38.9999931 magnetization       0.9943392
 augmentation part        5.5884501 magnetization       0.1943621

 Broyden mixing:
  rms(total) = 0.31477E-02    rms(broyden)= 0.31465E-02
  rms(prec ) = 0.63710E-02
  weight for this iteration     100.00

 eigenvalues of (default mixing * dielectric matrix)
  average eigenvalue GAMMA=   1.4607
  3.9556  2.5806  1.7357  1.1283  0.8596  0.8596  0.6436  0.6915  0.6915

 Free energy of the ion-electron system (eV)
  ---------------------------------------------------
  alpha Z        PSCENC =       119.54541683
  Ewald energy   TEWEN  =      3188.33900738
  -Hartree energ DENC   =     -6139.85328340
  -exchange      EXHF   =         0.00000000
  -V(xc)+E(xc)   XCENC  =       162.87537836
  PAW double counting   =      2129.08942438    -2093.49256591
  entropy T*S    EENTRO =        -0.00192978
  eigenvalues    EBANDS =      -630.04603518
  atomic energy  EATOM  =      3221.53645933
  Solvation  Ediel_sol  =         0.00000000
  ---------------------------------------------------
  free energy    TOTEN  =       -42.00812797 eV

  energy without entropy =      -42.00619819  energy(sigma->0) =      -42.00716308


--------------------------------------------------------------------------------------------------------




----------------------------------------- Iteration    1(  15)  ---------------------------------------


    POTLOK:  cpu time    0.0840: real time    0.0857
    SETDIJ:  cpu time    0.0120: real time    0.0109
     EDDAV:  cpu time    1.2881: real time    1.2939
       DOS:  cpu time    0.0000: real time    0.0008
    CHARGE:  cpu time    0.0520: real time    0.0529
    MIXING:  cpu time    0.0040: real time    0.0047
    --------------------------------------------
      LOOP:  cpu time    1.4401: real time    1.4577

 eigenvalue-minimisations  :  1296
 total energy-change (2. order) :-0.6548435E-03  (-0.9397210E-05)
 number of electron      38.9999930 magnetization       0.9947395
 augmentation part        5.5885266 magnetization       0.1951697

 Broyden mixing:
  rms(total) = 0.21905E-02    rms(broyden)= 0.21897E-02
  rms(prec ) = 0.46329E-02
  weight for this iteration     100.00

 eigenvalues of (default mixing * dielectric matrix)
  average eigenvalue GAMMA=   1.4590
  3.9629  2.5338  2.1923  1.3143  0.9004  0.9004  0.7663  0.6269  0.6965  0.6965

 Free energy of the ion-electron system (eV)
  ---------------------------------------------------
  alpha Z        PSCENC =       119.54541683
  Ewald energy   TEWEN  =      3188.33900738
  -Hartree energ DENC   =     -6140.24165077
  -exchange      EXHF   =         0.00000000
  -V(xc)+E(xc)   XCENC  =       162.87044040
  PAW double counting   =      2129.19430439    -2093.60447273
  entropy T*S    EENTRO =        -0.00192424
  eigenvalues    EBANDS =      -629.64636341
  atomic energy  EATOM  =      3221.53645933
  Solvation  Ediel_sol  =         0.00000000
  ---------------------------------------------------
  free energy    TOTEN  =       -42.00878281 eV

  energy without entropy =      -42.00685858  energy(sigma->0) =      -42.00782070


--------------------------------------------------------------------------------------------------------




----------------------------------------- Iteration    1(  16)  ---------------------------------------


    POTLOK:  cpu time    0.0880: real time    0.0866
    SETDIJ:  cpu time    0.0080: real time    0.0103
     EDDAV:  cpu time    1.2521: real time    1.2696
       DOS:  cpu time    0.0000: real time    0.0007
    CHARGE:  cpu time    0.0520: real time    0.0533
    MIXING:  cpu time    0.0080: real time    0.0051
    --------------------------------------------
      LOOP:  cpu time    1.4081: real time    1.4401

 eigenvalue-minimisations  :  1264
 total energy-change (2. order) :-0.6824246E-03  (-0.4903151E-05)
 number of electron      38.9999931 magnetization       0.9958601
 augmentation part        5.5883222 magnetization       0.1964399

 Broyden mixing:
  rms(total) = 0.13179E-02    rms(broyden)= 0.13176E-02
  rms(prec ) = 0.29612E-02
  weight for this iteration     100.00

 eigenvalues of (default mixing * dielectric matrix)
  average eigenvalue GAMMA=   1.5043
  4.0004  2.8832  2.4289  1.4939  1.1349  0.9295  0.9295  0.6981  0.6981  0.7314
  0.6193

 Free energy of the ion-electron system (eV)
  ---------------------------------------------------
  alpha Z        PSCENC =       119.54541683
  Ewald energy   TEWEN  =      3188.33900738
  -Hartree energ DENC   =     -6140.81915997
  -exchange      EXHF   =         0.00000000
  -V(xc)+E(xc)   XCENC  =       162.87115460
  PAW double counting   =      2129.54539039    -2093.95274794
  entropy T*S    EENTRO =        -0.00191820
  eigenvalues    EBANDS =      -629.07306765
  atomic energy  EATOM  =      3221.53645933
  Solvation  Ediel_sol  =         0.00000000
  ---------------------------------------------------
  free energy    TOTEN  =       -42.00946524 eV

  energy without entropy =      -42.00754703  energy(sigma->0) =      -42.00850614


--------------------------------------------------------------------------------------------------------




----------------------------------------- Iteration    1(  17)  ---------------------------------------


    POTLOK:  cpu time    0.0920: real time    0.0936
    SETDIJ:  cpu time    0.0120: real time    0.0107
     EDDAV:  cpu time    1.3121: real time    1.3300
       DOS:  cpu time    0.0000: real time    0.0008
    CHARGE:  cpu time    0.0520: real time    0.0523
    MIXING:  cpu time    0.0040: real time    0.0049
    --------------------------------------------
      LOOP:  cpu time    1.4721: real time    1.5060

 eigenvalue-minimisations  :  1344
 total energy-change (2. order) :-0.5645075E-03  (-0.4942679E-05)
 number of electron      38.9999931 magnetization       0.9971919
 augmentation part        5.5881239 magnetization       0.1978661

 Broyden mixing:
  rms(total) = 0.10078E-02    rms(broyden)= 0.10072E-02
  rms(prec ) = 0.16165E-02
  weight for this iteration     100.00

 eigenvalues of (default mixing * dielectric matrix)
  average eigenvalue GAMMA=   1.5267
  4.1231  3.4708  2.3477  1.7933  1.2594  0.9314  0.9314  0.7747  0.7032  0.7032
  0.6752  0.6077

 Free energy of the ion-electron system (eV)
  ---------------------------------------------------
  alpha Z        PSCENC =       119.54541683
  Ewald energy   TEWEN  =      3188.33900738
  -Hartree energ DENC   =     -6141.48267626
  -exchange      EXHF   =         0.00000000
  -V(xc)+E(xc)   XCENC  =       162.87426693
  PAW double counting   =      2129.71748845    -2094.11985454
  entropy T*S    EENTRO =        -0.00192635
  eigenvalues    EBANDS =      -628.41821152
  atomic energy  EATOM  =      3221.53645933
  Solvation  Ediel_sol  =         0.00000000
  ---------------------------------------------------
  free energy    TOTEN  =       -42.01002975 eV

  energy without entropy =      -42.00810339  energy(sigma->0) =      -42.00906657


--------------------------------------------------------------------------------------------------------




----------------------------------------- Iteration    1(  18)  ---------------------------------------


    POTLOK:  cpu time    0.0920: real time    0.0974
    SETDIJ:  cpu time    0.0120: real time    0.0117
     EDDAV:  cpu time    1.2401: real time    1.2599
       DOS:  cpu time    0.0000: real time    0.0008
    CHARGE:  cpu time    0.0600: real time    0.0585
    MIXING:  cpu time    0.0040: real time    0.0057
    --------------------------------------------
      LOOP:  cpu time    1.4121: real time    1.4529

 eigenvalue-minimisations  :  1216
 total energy-change (2. order) :-0.1227069E-03  (-0.2016348E-05)
 number of electron      38.9999930 magnetization       0.9989575
 augmentation part        5.5881492 magnetization       0.1995228

 Broyden mixing:
  rms(total) = 0.65303E-03    rms(broyden)= 0.65263E-03
  rms(prec ) = 0.99582E-03
  weight for this iteration     100.00

 eigenvalues of (default mixing * dielectric matrix)
  average eigenvalue GAMMA=   1.6142
  4.5666  3.7996  2.3758  2.3758  1.4060  1.1960  0.9122  0.9122  0.7102  0.7102
  0.7513  0.6586  0.6107

 Free energy of the ion-electron system (eV)
  ---------------------------------------------------
  alpha Z        PSCENC =       119.54541683
  Ewald energy   TEWEN  =      3188.33900738
  -Hartree energ DENC   =     -6141.75289365
  -exchange      EXHF   =         0.00000000
  -V(xc)+E(xc)   XCENC  =       162.87544122
  PAW double counting   =      2129.58855991    -2093.98840316
  entropy T*S    EENTRO =        -0.00193085
  eigenvalues    EBANDS =      -628.15180947
  atomic energy  EATOM  =      3221.53645933
  Solvation  Ediel_sol  =         0.00000000
  ---------------------------------------------------
  free energy    TOTEN  =       -42.01015245 eV

  energy without entropy =      -42.00822160  energy(sigma->0) =      -42.00918703


--------------------------------------------------------------------------------------------------------




----------------------------------------- Iteration    1(  19)  ---------------------------------------


    POTLOK:  cpu time    0.1000: real time    0.1008
    SETDIJ:  cpu time    0.0120: real time    0.0116
     EDDAV:  cpu time    1.2081: real time    1.2775
       DOS:  cpu time    0.0000: real time    0.0008
    CHARGE:  cpu time    0.0560: real time    0.0545
    MIXING:  cpu time    0.0040: real time    0.0062
    --------------------------------------------
      LOOP:  cpu time    1.3801: real time    1.4603

 eigenvalue-minimisations  :  1184
 total energy-change (2. order) :-0.2600438E-04  (-0.1218062E-05)
 number of electron      38.9999930 magnetization       0.9995855
 augmentation part        5.5882860 magnetization       0.2001050

 Broyden mixing:
  rms(total) = 0.37556E-03    rms(broyden)= 0.37482E-03
  rms(prec ) = 0.50391E-03
  weight for this iteration     100.00

 eigenvalues of (default mixing * dielectric matrix)
  average eigenvalue GAMMA=   1.7138
  5.8491  3.9343  2.6250  2.6250  1.6389  1.2082  0.9049  0.9049  0.8982  0.7138
  0.7138  0.7206  0.6145  0.6424

 Free energy of the ion-electron system (eV)
  ---------------------------------------------------
  alpha Z        PSCENC =       119.54541683
  Ewald energy   TEWEN  =      3188.33900738
  -Hartree energ DENC   =     -6142.00363652
  -exchange      EXHF   =         0.00000000
  -V(xc)+E(xc)   XCENC  =       162.87674908
  PAW double counting   =      2129.45067899    -2093.84857213
  entropy T*S    EENTRO =        -0.00193175
  eigenvalues    EBANDS =      -627.90434967
  atomic energy  EATOM  =      3221.53645933
  Solvation  Ediel_sol  =         0.00000000
  ---------------------------------------------------
  free energy    TOTEN  =       -42.01017846 eV

  energy without entropy =      -42.00824670  energy(sigma->0) =      -42.00921258


--------------------------------------------------------------------------------------------------------




----------------------------------------- Iteration    1(  20)  ---------------------------------------


    POTLOK:  cpu time    0.0880: real time    0.0880
    SETDIJ:  cpu time    0.0080: real time    0.0104
     EDDAV:  cpu time    1.1361: real time    1.1412
       DOS:  cpu time    0.0000: real time    0.0008
    CHARGE:  cpu time    0.0520: real time    0.0524
    MIXING:  cpu time    0.0080: real time    0.0062
    --------------------------------------------
      LOOP:  cpu time    1.2961: real time    1.3114

 eigenvalue-minimisations  :  1184
 total energy-change (2. order) : 0.2385728E-05  (-0.2818815E-06)
 number of electron      38.9999930 magnetization       0.9998351
 augmentation part        5.5883176 magnetization       0.2002881

 Broyden mixing:
  rms(total) = 0.19617E-03    rms(broyden)= 0.19563E-03
  rms(prec ) = 0.25436E-03
  weight for this iteration     100.00

 eigenvalues of (default mixing * dielectric matrix)
  average eigenvalue GAMMA=   1.7665
  6.9363  3.9766  2.8949  2.5390  1.8201  1.1988  1.1988  0.8858  0.8858  0.7721
  0.7210  0.7210  0.6987  0.6105  0.6380

 Free energy of the ion-electron system (eV)
  ---------------------------------------------------
  alpha Z        PSCENC =       119.54541683
  Ewald energy   TEWEN  =      3188.33900738
  -Hartree energ DENC   =     -6142.07658730
  -exchange      EXHF   =         0.00000000
  -V(xc)+E(xc)   XCENC  =       162.87735987
  PAW double counting   =      2129.43966464    -2093.83944901
  entropy T*S    EENTRO =        -0.00193109
  eigenvalues    EBANDS =      -627.83011672
  atomic energy  EATOM  =      3221.53645933
  Solvation  Ediel_sol  =         0.00000000
  ---------------------------------------------------
  free energy    TOTEN  =       -42.01017607 eV

  energy without entropy =      -42.00824498  energy(sigma->0) =      -42.00921053


--------------------------------------------------------------------------------------------------------




----------------------------------------- Iteration    1(  21)  ---------------------------------------


    POTLOK:  cpu time    0.0840: real time    0.0873
    SETDIJ:  cpu time    0.0120: real time    0.0104
     EDDAV:  cpu time    1.0281: real time    1.0315
       DOS:  cpu time    0.0000: real time    0.0008
    CHARGE:  cpu time    0.0600: real time    0.0581
    MIXING:  cpu time    0.0040: real time    0.0065
    --------------------------------------------
      LOOP:  cpu time    1.1881: real time    1.2275

 eigenvalue-minimisations  :  1032
 total energy-change (2. order) :-0.3600067E-05  (-0.7659506E-07)
 number of electron      38.9999930 magnetization       0.9999715
 augmentation part        5.5883182 magnetization       0.2004140

 Broyden mixing:
  rms(total) = 0.98164E-04    rms(broyden)= 0.97890E-04
  rms(prec ) = 0.13439E-03
  weight for this iteration     100.00

 eigenvalues of (default mixing * dielectric matrix)
  average eigenvalue GAMMA=   1.7792
  7.4247  3.9931  3.0121  2.5395  1.8045  1.4746  1.1978  1.0698  0.9165  0.9165
  0.7182  0.7182  0.7602  0.6846  0.6305  0.6068

 Free energy of the ion-electron system (eV)
  ---------------------------------------------------
  alpha Z        PSCENC =       119.54541683
  Ewald energy   TEWEN  =      3188.33900738
  -Hartree energ DENC   =     -6142.09541002
  -exchange      EXHF   =         0.00000000
  -V(xc)+E(xc)   XCENC  =       162.87741803
  PAW double counting   =      2129.43242387    -2093.83436980
  entropy T*S    EENTRO =        -0.00193141
  eigenvalues    EBANDS =      -627.80919388
  atomic energy  EATOM  =      3221.53645933
  Solvation  Ediel_sol  =         0.00000000
  ---------------------------------------------------
  free energy    TOTEN  =       -42.01017967 eV

  energy without entropy =      -42.00824826  energy(sigma->0) =      -42.00921397


--------------------------------------------------------------------------------------------------------




----------------------------------------- Iteration    1(  22)  ---------------------------------------


    POTLOK:  cpu time    0.0960: real time    0.0943
    SETDIJ:  cpu time    0.0080: real time    0.0111
     EDDAV:  cpu time    1.3801: real time    1.3910
       DOS:  cpu time    0.0000: real time    0.0007
    CHARGE:  cpu time    0.0560: real time    0.0572
    MIXING:  cpu time    0.0080: real time    0.0078
    --------------------------------------------
      LOOP:  cpu time    1.5481: real time    1.5756

 eigenvalue-minimisations  :  1056
 total energy-change (2. order) :-0.3412244E-05  (-0.3305756E-07)
 number of electron      38.9999930 magnetization       1.0000134
 augmentation part        5.5883188 magnetization       0.2004543

 Broyden mixing:
  rms(total) = 0.50632E-04    rms(broyden)= 0.50444E-04
  rms(prec ) = 0.66247E-04
  weight for this iteration     100.00

 eigenvalues of (default mixing * dielectric matrix)
  average eigenvalue GAMMA=   1.8056
  7.7185  4.0151  3.2596  2.5690  2.2530  1.7994  1.2551  1.0822  0.9014  0.9014
  0.8498  0.7150  0.7150  0.7296  0.6978  0.6081  0.6253

 Free energy of the ion-electron system (eV)
  ---------------------------------------------------
  alpha Z        PSCENC =       119.54541683
  Ewald energy   TEWEN  =      3188.33900738
  -Hartree energ DENC   =     -6142.10771283
  -exchange      EXHF   =         0.00000000
  -V(xc)+E(xc)   XCENC  =       162.87737924
  PAW double counting   =      2129.42226399    -2093.82606317
  entropy T*S    EENTRO =        -0.00193186
  eigenvalues    EBANDS =      -627.79500200
  atomic energy  EATOM  =      3221.53645933
  Solvation  Ediel_sol  =         0.00000000
  ---------------------------------------------------
  free energy    TOTEN  =       -42.01018308 eV

  energy without entropy =      -42.00825122  energy(sigma->0) =      -42.00921715


--------------------------------------------------------------------------------------------------------




----------------------------------------- Iteration    1(  23)  ---------------------------------------


    POTLOK:  cpu time    0.0920: real time    0.0930
    SETDIJ:  cpu time    0.0120: real time    0.0110
     EDDAV:  cpu time    1.3401: real time    1.3512
       DOS:  cpu time    0.0000: real time    0.0008
    CHARGE:  cpu time    0.0560: real time    0.0574
    MIXING:  cpu time    0.0080: real time    0.0086
    --------------------------------------------
      LOOP:  cpu time    1.5081: real time    1.5308

 eigenvalue-minimisations  :  1024
 total energy-change (2. order) :-0.1107550E-05  (-0.1340316E-07)
 number of electron      38.9999930 magnetization       1.0000120
 augmentation part        5.5883124 magnetization       0.2004497

 Broyden mixing:
  rms(total) = 0.25217E-04    rms(broyden)= 0.25186E-04
  rms(prec ) = 0.30258E-04
  weight for this iteration     100.00

 eigenvalues of (default mixing * dielectric matrix)
  average eigenvalue GAMMA=   1.8092
  7.8754  4.0320  3.6137  2.6944  2.4319  1.7545  1.3046  1.0953  1.0953  0.9228
  0.9228  0.7902  0.7173  0.7173  0.7069  0.6585  0.6081  0.6248

 Free energy of the ion-electron system (eV)
  ---------------------------------------------------
  alpha Z        PSCENC =       119.54541683
  Ewald energy   TEWEN  =      3188.33900738
  -Hartree energ DENC   =     -6142.11753307
  -exchange      EXHF   =         0.00000000
  -V(xc)+E(xc)   XCENC  =       162.87744880
  PAW double counting   =      2129.42131568    -2093.82564769
  entropy T*S    EENTRO =        -0.00193188
  eigenvalues    EBANDS =      -627.78471957
  atomic energy  EATOM  =      3221.53645933
  Solvation  Ediel_sol  =         0.00000000
  ---------------------------------------------------
  free energy    TOTEN  =       -42.01018419 eV

  energy without entropy =      -42.00825231  energy(sigma->0) =      -42.00921825


--------------------------------------------------------------------------------------------------------




----------------------------------------- Iteration    1(  24)  ---------------------------------------


    POTLOK:  cpu time    0.0960: real time    0.0993
    SETDIJ:  cpu time    0.0120: real time    0.0112
     EDDAV:  cpu time    1.5121: real time    1.5429
       DOS:  cpu time    0.0000: real time    0.0008
    --------------------------------------------
      LOOP:  cpu time    1.6281: real time    1.6751

 eigenvalue-minimisations  :  1024
 total energy-change (2. order) :-0.9057540E-06  (-0.5902827E-08)
 number of electron      38.9999930 magnetization       1.0000120
 augmentation part        5.5883124 magnetization       0.2004497

 Free energy of the ion-electron system (eV)
  ---------------------------------------------------
  alpha Z        PSCENC =       119.54541683
  Ewald energy   TEWEN  =      3188.33900738
  -Hartree energ DENC   =     -6142.12092178
  -exchange      EXHF   =         0.00000000
  -V(xc)+E(xc)   XCENC  =       162.87748532
  PAW double counting   =      2129.42251233    -2093.82676106
  entropy T*S    EENTRO =        -0.00193190
  eigenvalues    EBANDS =      -627.78145154
  atomic energy  EATOM  =      3221.53645933
  Solvation  Ediel_sol  =         0.00000000
  ---------------------------------------------------
  free energy    TOTEN  =       -42.01018510 eV

  energy without entropy =      -42.00825320  energy(sigma->0) =      -42.00921915


--------------------------------------------------------------------------------------------------------




 average (electrostatic) potential at core
  the test charge radii are     1.1987  0.7089  0.7215
  (the norm of the test charge is              1.0000)
       1 -42.1598       2 -42.1598       3 -69.7989       4 -76.2703       5 -76.2703
 
 
 
 E-fermi :  -3.0686     XC(G=0):  -5.5922     alpha+bet : -5.4898


 spin component 1

 k-point     1 :       0.0000    0.0000    0.0000
  band No.  band energies     occupation 
      1     -42.8614      1.00000
      2     -42.7698      1.00000
      3     -23.7335      1.00000
      4     -23.0780      1.00000
      5     -22.6959      1.00000
      6     -22.6959      1.00000
      7     -22.6299      1.00000
      8     -22.6299      1.00000
      9     -18.7768      1.00000
     10     -18.5243      1.00000
     11     -14.9913      1.00000
     12      -6.2632      1.00000
     13      -5.6443      1.00000
     14      -5.6441      1.00000
     15      -4.7751      1.00000
     16      -4.7748      1.00000
     17      -4.7161      1.00000
     18      -3.5923      1.00000
     19      -3.2102      1.00000
     20      -3.2099      1.00000
     21       1.6737      0.00000
     22       1.6737      0.00000
     23       1.7097      0.00000
     24       2.9673      0.00000
     25       3.5542      0.00000
     26       3.8538      0.00000
     27       3.8539      0.00000
     28       3.9003      0.00000
     29       4.4367      0.00000
     30       5.2068      0.00000
     31       5.2070      0.00000
     32       6.0851      0.00000

 k-point     2 :       0.1429    0.0000    0.0000
  band No.  band energies     occupation 
      1     -42.8414      1.00000
      2     -42.7579      1.00000
      3     -23.6444      1.00000
      4     -23.2079      1.00000
      5     -22.9208      1.00000
      6     -22.7595      1.00000
      7     -22.7471      1.00000
      8     -22.6472      1.00000
      9     -18.5674      1.00000
     10     -18.4406      1.00000
     11     -15.0539      1.00000
     12      -6.1531      1.00000
     13      -5.5202      1.00000
     14      -5.4765      1.00000
     15      -4.9353      1.00000
     16      -4.6869      1.00000
     17      -4.5263      1.00000
     18      -3.8031      1.00000
     19      -3.4221      1.00000
     20      -3.3612      1.00000
     21       1.2653      0.00000
     22       2.0002      0.00000
     23       2.1160      0.00000
     24       3.1865      0.00000
     25       3.6338      0.00000
     26       3.8605      0.00000
     27       4.0231      0.00000
     28       4.2898      0.00000
     29       4.8243      0.00000
     30       5.3603      0.00000
     31       5.5065      0.00000
     32       6.0150      0.00000

 k-point     3 :       0.2857    0.0000    0.0000
  band No.  band energies     occupation 
      1     -42.7945      1.00000
      2     -42.7330      1.00000
      3     -23.6403      1.00000
      4     -23.4282      1.00000
      5     -23.3767      1.00000
      6     -22.8473      1.00000
      7     -22.7982      1.00000
      8     -22.6983      1.00000
      9     -18.3458      1.00000
     10     -18.3025      1.00000
     11     -15.0449      1.00000
     12      -5.9875      1.00000
     13      -5.4178      1.00000
     14      -5.1755      1.00000
[...]
      9     -17.3165      1.00000
     10     -17.2912      1.00000
     11     -13.2025      1.00000
     12      -4.7846      1.00000
     13      -4.5294      1.00000
     14      -4.0690      1.00000
     15      -4.0020      1.00000
     16      -3.8440      1.00000
     17      -3.6299      1.00000
     18      -2.6999      1.00000
     19      -2.5015      1.00000
     20      -2.0855      0.00000
     21       2.3367      0.00000
     22       3.4779      0.00000
     23       3.6972      0.00000
     24       3.8440      0.00000
     25       4.4194      0.00000
     26       4.8390      0.00000
     27       5.3827      0.00000
     28       5.8467      0.00000
     29       5.9087      0.00000
     30       6.5085      0.00000
     31       7.0200      0.00000
     32       7.7304      0.00000

 k-point     7 :       0.4286    0.1429    0.0000
  band No.  band energies     occupation 
      1     -42.1887      1.00000
      2     -42.1814      1.00000
      3     -23.2842      1.00000
      4     -23.2069      1.00000
      5     -22.4576      1.00000
      6     -22.4495      1.00000
      7     -22.3677      1.00000
      8     -22.3473      1.00000
      9     -17.2572      1.00000
     10     -17.2055      1.00000
     11     -13.1323      1.00000
     12      -5.0548      1.00000
     13      -4.3899      1.00000
     14      -3.8677      1.00000
     15      -3.8123      1.00000
     16      -3.6200      1.00000
     17      -3.5507      1.00000
     18      -2.8279      1.00000
     19      -2.5218      1.00000
     20      -2.2672      0.83470
     21       2.3778      0.00000
     22       3.5729      0.00000
     23       3.5930      0.00000
     24       3.7956      0.00000
     25       4.6701      0.00000
     26       5.1039      0.00000
     27       5.3644      0.00000
     28       6.3629      0.00000
     29       6.9553      0.00000
     30       7.2241      0.00000
     31       7.5479      0.00000
     32       7.5541      0.00000

 k-point     8 :       0.2857    0.2857    0.0000
  band No.  band energies     occupation 
      1     -42.1848      1.00000
      2     -42.1796      1.00000
      3     -23.1914      1.00000
      4     -23.1765      1.00000
      5     -22.6057      1.00000
      6     -22.4844      1.00000
      7     -22.4297      1.00000
      8     -22.3541      1.00000
      9     -17.1671      1.00000
     10     -17.1618      1.00000
     11     -13.1625      1.00000
     12      -4.5588      1.00000
     13      -4.2051      1.00000
     14      -4.0386      1.00000
     15      -3.9417      1.00000
     16      -3.8696      1.00000
     17      -3.5650      1.00000
     18      -2.7192      1.00000
     19      -2.5742      1.00000
     20      -2.4679      1.00000
     21       2.5321      0.00000
     22       3.3478      0.00000
     23       3.5184      0.00000
     24       3.5848      0.00000
     25       4.7920      0.00000
     26       4.9749      0.00000
     27       5.4967      0.00000
     28       6.5089      0.00000
     29       6.7537      0.00000
     30       7.2609      0.00000
     31       7.5496      0.00000
     32       7.8233      0.00000


--------------------------------------------------------------------------------------------------------


 soft charge-density along one line, spin component           1
         0         1         2         3         4         5         6         7         8         9
 total charge-density along one line
 
 soft charge-density along one line, spin component           2
         0         1         2         3         4         5         6         7         8         9
 total charge-density along one line
 
 pseudopotential strength for first ion, spin component:           1
-24.577   0.000 -17.213   0.000   0.000   0.000  -0.003   0.000   0.000   0.000   0.000   0.000   0.000   0.000   0.000   0.000
-17.213   0.000 -12.681   0.000   0.000   0.000  -0.005   0.000   0.000   0.000   0.000   0.000   0.000   0.000   0.000   0.000
  0.000   0.000   0.000   0.000 -21.063   0.000   0.000   0.000   0.000   0.000   0.431   0.000   0.000   0.000   0.000   0.000
 -0.003   0.000  -0.005   0.000   0.000   0.000 -21.112   0.000   0.000   0.000   0.000   0.000   0.433   0.000   0.000   0.000
  0.000   0.000   0.000   0.000   0.000   0.000   0.000   0.000 -21.063   0.000   0.000   0.000   0.000   0.000   0.431   0.000
  0.000   0.000   0.000   0.000   0.431   0.000   0.000   0.000   0.000   0.000  -0.249   0.000   0.000   0.000   0.000   0.000
  0.000   0.000   0.000   0.000   0.000   0.000   0.433   0.000   0.000   0.000   0.000   0.000  -0.249   0.000   0.000   0.000
  0.000   0.000   0.000   0.000   0.000   0.000   0.000   0.000   0.431   0.000   0.000   0.000   0.000   0.000  -0.249   0.000
  0.000   0.000   0.000   0.000   0.000   0.000   0.000   0.000   0.003   0.000   0.000   0.000   0.000   0.000   0.000   0.000
  0.000   0.000   0.000   0.000  -0.002   0.000   0.000   0.000   0.000   0.000   0.000   0.000   0.000   0.000   0.000   0.000
 -0.017   0.000  -0.017   0.000   0.000   0.000  -0.002   0.000   0.000   0.000   0.000   0.000   0.000   0.000   0.000   0.000
  0.000   0.000   0.000   0.000   0.000   0.000   0.000   0.000  -0.002   0.000   0.000   0.000   0.000   0.000   0.000   0.000
  0.000   0.000   0.000   0.000   0.003   0.000   0.000   0.000   0.000   0.000   0.000   0.000   0.000   0.000   0.000   0.000
  0.000   0.000   0.000   0.000   0.000   0.000   0.000   0.000   0.000   0.000   0.000   0.000   0.000   0.000   0.000   0.000
  0.000   0.000   0.000   0.000   0.000   0.000   0.000   0.000   0.000   0.000   0.000   0.000   0.000   0.000   0.000   0.000
 -0.001   0.000  -0.001   0.000   0.000   0.000   0.000   0.000   0.000   0.000   0.000   0.000   0.000   0.000   0.000   0.000
  0.000   0.000   0.000   0.000   0.000   0.000   0.000   0.000   0.000   0.000   0.000   0.000   0.000   0.000   0.000   0.000
  0.000   0.000   0.000   0.000   0.000   0.000   0.000   0.000   0.000   0.000   0.000   0.000   0.000   0.000   0.000   0.000
 pseudopotential strength for first ion, spin component:           2
-24.576   0.000 -17.213   0.000   0.000   0.000  -0.003   0.000   0.000   0.000   0.000   0.000   0.000   0.000   0.000   0.000
-17.213   0.000 -12.680   0.000   0.000   0.000  -0.006   0.000   0.000   0.000   0.000   0.000   0.000   0.000   0.000   0.000
  0.000   0.000   0.000   0.000 -21.063   0.000   0.000   0.000   0.000   0.000   0.431   0.000   0.000   0.000   0.000   0.000
 -0.003   0.000  -0.006   0.000   0.000   0.000 -21.112   0.000   0.000   0.000   0.000   0.000   0.432   0.000   0.000   0.000
  0.000   0.000   0.000   0.000   0.000   0.000   0.000   0.000 -21.063   0.000   0.000   0.000   0.000   0.000   0.431   0.000
  0.000   0.000   0.000   0.000   0.431   0.000   0.000   0.000   0.000   0.000  -0.249   0.000   0.000   0.000   0.000   0.000
  0.000   0.000   0.000   0.000   0.000   0.000   0.432   0.000   0.000   0.000   0.000   0.000  -0.249   0.000   0.000   0.000
  0.000   0.000   0.000   0.000   0.000   0.000   0.000   0.000   0.431   0.000   0.000   0.000   0.000   0.000  -0.249   0.000
  0.000   0.000   0.000   0.000   0.000   0.000   0.000   0.000   0.003   0.000   0.000   0.000   0.000   0.000   0.000   0.000
  0.000   0.000   0.000   0.000  -0.002   0.000   0.000   0.000   0.000   0.000   0.000   0.000   0.000   0.000   0.000   0.000
 -0.017   0.000  -0.017   0.000   0.000   0.000  -0.002   0.000   0.000   0.000   0.000   0.000   0.000   0.000   0.000   0.000
  0.000   0.000   0.000   0.000   0.000   0.000   0.000   0.000  -0.002   0.000   0.000   0.000   0.000   0.000   0.000   0.000
  0.000   0.000   0.000   0.000   0.003   0.000   0.000   0.000   0.000   0.000   0.000   0.000   0.000   0.000   0.000   0.000
  0.000   0.000   0.000   0.000   0.000   0.000   0.000   0.000   0.000   0.000   0.000   0.000   0.000   0.000   0.000   0.000
  0.000   0.000   0.000   0.000   0.000   0.000   0.000   0.000   0.000   0.000   0.000   0.000   0.000   0.000   0.000   0.000
 -0.001   0.000  -0.001   0.000   0.000   0.000   0.000   0.000   0.000   0.000   0.000   0.000   0.000   0.000   0.000   0.000
  0.000   0.000   0.000   0.000   0.000   0.000   0.000   0.000   0.000   0.000   0.000   0.000   0.000   0.000   0.000   0.000
  0.000   0.000   0.000   0.000   0.000   0.000   0.000   0.000   0.000   0.000   0.000   0.000   0.000   0.000   0.000   0.000
 total augmentation occupancy for first ion, spin component:           1
  2.430  -0.748   0.000  -0.008   0.000   0.000   0.021   0.000   0.000   0.000   0.092   0.000   0.000   0.000   0.000  -0.240
 -0.748   1.284   0.000   0.014   0.000   0.000  -0.038   0.000   0.000   0.000  -0.153   0.000   0.000   0.000   0.000   0.499
  0.000   0.000   2.042   0.000   0.000  -0.199   0.000   0.000   0.000   0.022   0.000   0.000  -0.046   0.000  -0.029   0.000
 -0.008   0.014   0.000   2.030   0.000   0.000  -0.137   0.000   0.000   0.000  -0.026   0.000   0.000   0.000   0.000   0.032
  0.000   0.000   0.000   0.000   2.042   0.000   0.000  -0.199  -0.046   0.000   0.000   0.022   0.000   0.062   0.000   0.000
  0.000   0.000  -0.199   0.000   0.000   0.582   0.000   0.000   0.000  -0.063   0.000   0.000   0.140   0.000   0.224   0.000
  0.021  -0.038   0.000  -0.137   0.000   0.000   0.359   0.000   0.000   0.000   0.093   0.000   0.000   0.000   0.000  -0.227
  0.000   0.000   0.000   0.000  -0.199   0.000   0.000   0.582   0.140   0.000   0.000  -0.063   0.000  -0.428   0.000   0.000
  0.000   0.000   0.000   0.000  -0.046   0.000   0.000   0.140   0.294   0.000   0.000  -0.114   0.000  -0.763   0.000   0.000
  0.000   0.000   0.022   0.000   0.000  -0.063   0.000   0.000   0.000   0.258   0.000   0.000  -0.114   0.000  -0.624   0.000
  0.092  -0.153   0.000  -0.026   0.000   0.000   0.093   0.000   0.000   0.000   0.181   0.000   0.000   0.000   0.000  -0.409
  0.000   0.000   0.000   0.000   0.022   0.000   0.000  -0.063  -0.114   0.000   0.000   0.258   0.000   0.317   0.000   0.000
  0.000   0.000  -0.046   0.000   0.000   0.140   0.000   0.000   0.000  -0.114   0.000   0.000   0.294   0.000   0.314   0.000
  0.000   0.000   0.000   0.000   0.062   0.000   0.000  -0.428  -0.763   0.000   0.000   0.317   0.000   2.261   0.000   0.000
  0.000   0.000  -0.029   0.000   0.000   0.224   0.000   0.000   0.000  -0.624   0.000   0.000   0.314   0.000   1.722   0.000
 -0.240   0.499   0.000   0.032   0.000   0.000  -0.227   0.000   0.000   0.000  -0.409   0.000   0.000   0.000   0.000   1.039
  0.000   0.000   0.000   0.000  -0.029   0.000   0.000   0.224   0.314   0.000   0.000  -0.624   0.000  -1.083   0.000   0.000
  0.000   0.000   0.062   0.000   0.000  -0.428   0.000   0.000   0.000   0.317   0.000   0.000  -0.763   0.000  -1.083   0.000
 total augmentation occupancy for first ion, spin component:           2
 -0.004   0.009   0.000   0.000   0.000   0.000   0.000   0.000   0.000   0.000   0.000   0.000   0.000   0.000   0.000  -0.001
  0.009  -0.018   0.000  -0.001   0.000   0.000  -0.001   0.000   0.000   0.000   0.001   0.000   0.000   0.000   0.000   0.001
  0.000   0.000   0.002   0.000   0.000  -0.006   0.000   0.000   0.000  -0.001   0.000   0.000   0.001   0.000   0.003   0.000
  0.000  -0.001   0.000   0.002   0.000   0.000  -0.007   0.000   0.000   0.000   0.000   0.000   0.000   0.000   0.000   0.001
  0.000   0.000   0.000   0.000   0.002   0.000   0.000  -0.006   0.001   0.000   0.000  -0.001   0.000  -0.003   0.000   0.000
  0.000   0.000  -0.006   0.000   0.000   0.013   0.000   0.000   0.000   0.003   0.000   0.000  -0.003   0.000  -0.012   0.000
  0.000  -0.001   0.000  -0.007   0.000   0.000   0.018   0.000   0.000   0.000  -0.002   0.000   0.000   0.000   0.000   0.003
  0.000   0.000   0.000   0.000  -0.006   0.000   0.000   0.013  -0.003   0.000   0.000   0.003   0.000   0.012   0.000   0.000
  0.000   0.000   0.000   0.000   0.001   0.000   0.000  -0.003  -0.006   0.000   0.000   0.001   0.000   0.002   0.000   0.000
  0.000   0.000  -0.001   0.000   0.000   0.003   0.000   0.000   0.000  -0.002   0.000   0.000   0.001   0.000  -0.006   0.000
  0.000   0.001   0.000   0.000   0.000   0.000  -0.002   0.000   0.000   0.000  -0.008   0.000   0.000   0.000   0.000   0.010
  0.000   0.000   0.000   0.000  -0.001   0.000   0.000   0.003   0.001   0.000   0.000  -0.002   0.000   0.005   0.000   0.000
  0.000   0.000   0.001   0.000   0.000  -0.003   0.000   0.000   0.000   0.001   0.000   0.000  -0.006   0.000   0.005   0.000
  0.000   0.000   0.000   0.000  -0.003   0.000   0.000   0.012   0.002   0.000   0.000   0.005   0.000   0.022   0.000   0.000
  0.000   0.000   0.003   0.000   0.000  -0.012   0.000   0.000   0.000  -0.006   0.000   0.000   0.005   0.000   0.034   0.000
 -0.001   0.001   0.000   0.001   0.000   0.000   0.003   0.000   0.000   0.000   0.010   0.000   0.000   0.000   0.000  -0.007
  0.000   0.000   0.000   0.000   0.003   0.000   0.000  -0.012   0.005   0.000   0.000  -0.006   0.000  -0.028   0.000   0.000
  0.000   0.000  -0.003   0.000   0.000   0.012   0.000   0.000   0.000   0.005   0.000   0.000   0.002   0.000  -0.028   0.000


------------------------ aborting loop because EDIFF is reached ----------------------------------------


    CHARGE:  cpu time    0.0520: real time    0.0515
    FORLOC:  cpu time    0.0040: real time    0.0066
    FORNL :  cpu time    0.2400: real time    0.2396
    STRESS:  cpu time    0.7280: real time    0.7350
    FORCOR:  cpu time    0.1000: real time    0.1003
    FORHAR:  cpu time    0.0160: real time    0.0194
    MIXING:  cpu time    0.0080: real time    0.0055
    OFIELD:  cpu time    0.0000: real time    0.0000

  FORCE on cell =-STRESS in cart. coord.  units (eV):
  Direction    XX          YY          ZZ          XY          YZ          ZX
  --------------------------------------------------------------------------------------
  Alpha Z   119.54542   119.54542   119.54542
  Ewald    4086.52187  4086.52187 -5956.87861     0.00000     0.00000     0.00000
  Hartree  4814.21965  4814.21965 -4433.92425     0.00000     0.00000     0.00000
  E(xc)    -169.73915  -169.73912  -170.99936     0.00003     0.00000     0.00000
  Local   -9355.12378 -9355.12539  9939.55771    -0.00139     0.00000     0.00000
  n-local  -168.46851  -170.66367  -160.83779     6.22926     1.04367     3.94386
  augment    40.52389    40.52391    39.18152     0.00002     0.00000     0.00000
  Kinetic   630.60930   635.03465   623.53356   -14.46803    -2.93949   -10.98536
  Fock        0.00000     0.00000     0.00000     0.00000     0.00000     0.00000
  -------------------------------------------------------------------------------------
  Total      -0.79700    -0.79700    -0.82181     0.00000     0.00000     0.00000
  in kB      -8.28648    -8.28648    -8.54444     0.00000     0.00000     0.00000
  external pressure =       -8.37 kB  Pullay stress =        0.00 kB


 VOLUME and BASIS-vectors are now :
 -----------------------------------------------------------------------------
  energy-cutoff  :      415.00
  volume of cell :      154.10
      direct lattice vectors                 reciprocal lattice vectors
     3.557329581  0.000000000  0.000000000     0.281109742  0.162298785  0.000000000
    -1.778664790  3.080737787  0.000000000     0.000000000  0.324597570  0.000000000
     0.000000000  0.000000000 14.061177591     0.000000000  0.000000000  0.071117799

  length of vectors
     3.557329581  3.557329581 14.061177591     0.324597570  0.324597570  0.071117799


 FORCES acting on ions
    electron-ion (+dipol)            ewald-force                    non-local-force                 convergence-correction
 -----------------------------------------------------------------------------------------------
   -.130E-06 0.759E-07 0.849E+03   -.609E-11 -.544E-08 -.849E+03   0.116E-16 0.127E-16 0.410E+00   0.475E-09 -.274E-09 0.793E-03
   0.131E-06 -.767E-07 -.849E+03   0.133E-10 0.544E-08 0.849E+03   -.116E-16 -.406E-16 -.410E+00   -.476E-09 0.275E-09 -.793E-03
   0.146E-08 -.737E-09 0.593E-06   -.813E-11 0.464E-11 0.164E-10   0.374E-22 0.869E-22 0.000E+00   0.235E-12 -.127E-12 0.243E-08
   -.242E-05 0.142E-05 0.773E+03   0.858E-11 0.710E-08 -.784E+03   -.667E-15 0.383E-14 0.103E+02   -.340E-09 0.196E-09 0.385E-03
   0.242E-05 -.141E-05 -.773E+03   -.760E-11 -.710E-08 0.784E+03   0.660E-15 -.383E-14 -.103E+02   0.340E-09 -.196E-09 -.385E-03
 -----------------------------------------------------------------------------------------------
   0.506E-08 0.980E-09 -.178E-04   0.992E-14 0.121E-13 -.114E-12   -.697E-17 -.276E-16 0.178E-14   -.593E-12 0.396E-12 0.146E-07
 
 
 POSITION                                       TOTAL-FORCE (eV/Angst)
 -----------------------------------------------------------------------------------
      0.00000      0.00000      0.72335         0.000000      0.000000      0.000944
      1.77866      1.02691      3.75984         0.000000      0.000000     -0.000944
      0.00000      2.05383      2.24159         0.000000      0.000000      0.000000
      1.77866      1.02691     -0.04383         0.000000      0.000000     -0.004770
      0.00000      0.00000      4.52701         0.000000      0.000000      0.004770
 -----------------------------------------------------------------------------------
    total drift:                                0.000000      0.000000     -0.000018


--------------------------------------------------------------------------------------------------------



  FREE ENERGIE OF THE ION-ELECTRON SYSTEM (eV)
  ---------------------------------------------------
  free  energy   TOTEN  =       -42.64845941 eV

  energy  without entropy=      -42.64618120  energy(sigma->0) =      -42.64732030
 
 d Force = 0.1427205E-04[-0.774E-05, 0.363E-04]  d Energy = 0.2543800E-04-0.112E-04
 d Force = 0.7862246E+00[ 0.787E+00, 0.786E+00]  d Ewald  = 0.4321210E+01-0.353E+01


--------------------------------------------------------------------------------------------------------


    POTLOK:  cpu time    0.1160: real time    0.1194


--------------------------------------------------------------------------------------------------------


 Conjugate gradient step on ions:
 trial-energy change:   -0.000025  1 .order   -0.000024   -0.000048   -0.000001
  (g-gl).g =-0.157E-05      g.g   = 0.293E-04  gl.gl    = 0.302E-03
 g(Force)  = 0.224E-04   g(Stress)= 0.691E-05 ortho     = 0.988E-06
 gamma     =  -0.00518
 trial     =   1.63498
 opt step  =   1.66923  (harmonic =   1.66923) maximal distance =0.00104697
 next E    =   -42.648458   (d E  =  -0.00002)


--------------------------------------------------------------------------------------------------------


  
 reached required accuracy - stopping structural energy minimisation
 writing wavefunctions
     LOOP+:  cpu time   12.6008: real time   12.8004
    4ORBIT:  cpu time    0.0000: real time    0.0000

 total amount of memory used by VASP on root node    43379. kBytes
========================================================================

   base      :      30000. kBytes
   nonlr-proj:       1748. kBytes
   fftplans  :       2098. kBytes
   grid      :       6266. kBytes
   one-center:        155. kBytes
   wavefun   :       3112. kBytes
 
  
  
 General timing and accounting informations for this job:
 ========================================================
  
                  Total CPU time used (sec):      369.295
                            User time (sec):      367.847
                          System time (sec):        1.448
                         Elapsed time (sec):      378.479
  
                   Maximum memory used (kb):       54984.
                   Average memory used (kb):           0.
  
                          Minor page faults:        14292
                          Major page faults:            5
                 Voluntary context switches:         1429
