 vasp.5.4.4.18Apr17-6-g9f103f2a35 (build Jun 30 2017 19:19:18) complex          
  
 executed on         MareNostrum4 date 2023.03.12  21:11:08
 running on   48 total cores
 distrk:  each k-point on   48 cores,    1 groups
 distr:  one band on NCORES_PER_BAND=   1 cores,   48 groups


--------------------------------------------------------------------------------------------------------


 INCAR:
 POTCAR:   PAW_PBE Mo_pv 08Apr2002                
 POTCAR:   PAW_PBE N 08Apr2002                    
 POTCAR:   PAW_PBE F 08Apr2002                    

 ----------------------------------------------------------------------------- 
|                                                                             |
|           W    W    AA    RRRRR   N    N  II  N    N   GGGG   !!!           |
|           W    W   A  A   R    R  NN   N  II  NN   N  G    G  !!!           |
|           W    W  A    A  R    R  N N  N  II  N N  N  G       !!!           |
|           W WW W  AAAAAA  RRRRR   N  N N  II  N  N N  G  GGG   !            |
|           WW  WW  A    A  R   R   N   NN  II  N   NN  G    G                |
|           W    W  A    A  R    R  N    N  II  N    N   GGGG   !!!           |
|                                                                             |
|      For optimal performance we recommend to set                            |
|        NCORE= 4 - approx SQRT( number of cores)                             |
|      NCORE specifies how many cores store one orbital (NPAR=cpu/NCORE).     |
|      This setting can  greatly improve the performance of VASP for DFT.     |
|      The default,   NCORE=1            might be grossly inefficient         |
|      on modern multi-core architectures or massively parallel machines.     |
|      Do your own testing !!!!                                               |
|      Unfortunately you need to use the default for GW and RPA calculations. |
|      (for HF NCORE is supported but not extensively tested yet)             |
|                                                                             |
 ----------------------------------------------------------------------------- 

 POTCAR:   PAW_PBE Mo_pv 08Apr2002                
   VRHFIN =Mo: 4p5s4d                                                           
   LEXCH  = PE                                                                  
   EATOM  =  1284.3009 eV,   94.3935 Ry                                         
                                                                                
   TITEL  = PAW_PBE Mo_pv 08Apr2002                                             
   LULTRA =        F    use ultrasoft PP ?                                      
   IUNSCR =        1    unscreen: 0-lin 1-nonlin 2-no                           
   RPACOR =    2.200    partial core radius                                     
   POMASS =   95.940; ZVAL   =   12.000    mass and valenz                      
   RCORE  =    2.600    outmost cutoff radius                                   
   RWIGS  =    2.750; RWIGS  =    1.455    wigner-seitz radius (au A)           
   ENMAX  =  224.584; ENMIN  =  168.438 eV                                      
   RCLOC  =    1.902    cutoff for local pot                                    
   LCOR   =        T    correct aug charges                                     
   LPAW   =        T    paw PP                                                  
   EAUG   =  392.427                                                            
   DEXC   =    -.006                                                            
   RMAX   =    3.077    core radius for proj-oper                               
   RAUG   =    1.300    factor for augmentation sphere                          
   RDEP   =    2.641    radius for radial grids                                 
   QCUT   =   -4.063; QGAM   =    8.126    optimization parameters              
                                                                                
   Description                                                                  
     l     E      TYP  RCUT    TYP  RCUT                                        
     1   .000     23  2.500                                                     
     1  -.200     23  2.500                                                     
     2   .000     23  2.500                                                     
     2   .000     23  2.500                                                     
     0   .000     23  2.600                                                     
     0  1.000     23  2.600                                                     
     3   .000      7   .000                                                     
  local pseudopotential read in
  partial core-charges read in
  atomic valenz-charges read in
  non local Contribution for L=           1  read in
    real space projection operators read in
  non local Contribution for L=           1  read in
    real space projection operators read in
  non local Contribution for L=           2  read in
    real space projection operators read in
  non local Contribution for L=           2  read in
    real space projection operators read in
  non local Contribution for L=           0  read in
    real space projection operators read in
  non local Contribution for L=           0  read in
    real space projection operators read in
    PAW grid and wavefunctions read in
 
   number of l-projection  operators is LMAX  =           6
   number of lm-projection operators is LMMAX =          18
 
 POTCAR:   PAW_PBE N 08Apr2002                    
   VRHFIN =N: s2p3                                                              
   LEXCH  = PE                                                                  
   EATOM  =   264.5486 eV,   19.4438 Ry                                         
                                                                                
   TITEL  = PAW_PBE N 08Apr2002                                                 
   LULTRA =        F    use ultrasoft PP ?                                      
   IUNSCR =        0    unscreen: 0-lin 1-nonlin 2-no                           
   RPACOR =     .000    partial core radius                                     
   POMASS =   14.001; ZVAL   =    5.000    mass and valenz                      
   RCORE  =    1.500    outmost cutoff radius                                   
   RWIGS  =    1.400; RWIGS  =     .741    wigner-seitz radius (au A)           
   ENMAX  =  400.000; ENMIN  =  300.000 eV                                      
   ICORE  =        2    local potential                                         
   LCOR   =        T    correct aug charges                                     
   LPAW   =        T    paw PP                                                  
   EAUG   =  627.112                                                            
   DEXC   =     .000                                                            
   RMAX   =    2.247    core radius for proj-oper                               
   RAUG   =    1.300    factor for augmentation sphere                          
   RDEP   =    1.514    radius for radial grids                                 
   QCUT   =   -5.562; QGAM   =   11.124    optimization parameters              
                                                                                
   Description                                                                  
     l     E      TYP  RCUT    TYP  RCUT                                        
     0   .000     23  1.200                                                     
     0   .000     23  1.200                                                     
     1   .000     23  1.500                                                     
     1   .700     23  1.500                                                     
     2   .000      7  1.500                                                     
  local pseudopotential read in
  atomic valenz-charges read in
  non local Contribution for L=           0  read in
    real space projection operators read in
  non local Contribution for L=           0  read in
    real space projection operators read in
  non local Contribution for L=           1  read in
    real space projection operators read in
  non local Contribution for L=           1  read in
    real space projection operators read in
    PAW grid and wavefunctions read in
 
   number of l-projection  operators is LMAX  =           4
   number of lm-projection operators is LMMAX =           8
 
 POTCAR:   PAW_PBE F 08Apr2002                    
   VRHFIN =F: s2p5                                                              
   LEXCH  = PE                                                                  
   EATOM  =   659.4942 eV,   48.4715 Ry                                         
                                                                                
   TITEL  = PAW_PBE F 08Apr2002                                                 
   LULTRA =        F    use ultrasoft PP ?                                      
   IUNSCR =        0    unscreen: 0-lin 1-nonlin 2-no                           
   RPACOR =     .000    partial core radius                                     
   POMASS =   18.998; ZVAL   =    7.000    mass and valenz                      
   RCORE  =    1.520    outmost cutoff radius                                   
   RWIGS  =    1.500; RWIGS  =     .794    wigner-seitz radius (au A)           
   ENMAX  =  400.000; ENMIN  =  300.000 eV                                      
   ICORE  =        2    local potential                                         
   LCOR   =        T    correct aug charges                                     
   LPAW   =        T    paw PP                                                  
   EAUG   =  613.614                                                            
   DEXC   =     .000                                                            
   RMAX   =    2.254    core radius for proj-oper                               
   RAUG   =    1.300    factor for augmentation sphere                          
   RDEP   =    1.539    radius for radial grids                                 
   QCUT   =   -5.545; QGAM   =   11.091    optimization parameters              
                                                                                
   Description                                                                  
     l     E      TYP  RCUT    TYP  RCUT                                        
     0   .000     23  1.200                                                     
     0  -.700     23  1.200                                                     
     1   .000     23  1.520                                                     
     1   .100     23  1.520                                                     
     2   .000      7  1.500                                                     
  local pseudopotential read in
  atomic valenz-charges read in
  non local Contribution for L=           0  read in
    real space projection operators read in
  non local Contribution for L=           0  read in
    real space projection operators read in
  non local Contribution for L=           1  read in
    real space projection operators read in
  non local Contribution for L=           1  read in
    real space projection operators read in
    PAW grid and wavefunctions read in
 
   number of l-projection  operators is LMAX  =           4
   number of lm-projection operators is LMMAX =           8
 
 Optimization of the real space projectors (new method)

 maximal supplied QI-value         = 14.36
 optimisation between [QCUT,QGAM] = [ 10.34, 20.82] = [ 29.94,121.44] Ry 
 Optimized for a Real-space Cutoff    1.67 Angstroem

   l    n(q)    QCUT    max X(q) W(low)/X(q) W(high)/X(q)  e(spline) 
   1     10    10.341     5.234    0.98E-06    0.85E-05    0.27E-07
   1     10    10.341     6.009    0.67E-04    0.39E-04    0.17E-06
   2      9    10.341     3.728    0.25E-04    0.62E-05    0.64E-07
   2      9    10.341    42.124    0.38E-03    0.29E-04    0.66E-06
   0     10    10.341    26.637    0.18E-04    0.76E-06    0.18E-07
   0     10    10.341    51.518    0.30E-04    0.43E-05    0.17E-06
 Optimization of the real space projectors (new method)

 maximal supplied QI-value         = 25.13
 optimisation between [QCUT,QGAM] = [ 10.30, 20.86] = [ 29.74,121.86] Ry 
 Optimized for a Real-space Cutoff    1.44 Angstroem

   l    n(q)    QCUT    max X(q) W(low)/X(q) W(high)/X(q)  e(spline) 
   0      9    10.305     4.511    0.36E-04    0.16E-04    0.94E-07
   0      9    10.305    37.799    0.22E-03    0.22E-03    0.34E-06
   1      8    10.305     2.478    0.24E-04    0.31E-04    0.10E-06
   1      8    10.305     6.023    0.26E-03    0.86E-03    0.25E-05
 Optimization of the real space projectors (new method)

 maximal supplied QI-value         = 24.76
 optimisation between [QCUT,QGAM] = [ 10.40, 20.79] = [ 30.27,121.09] Ry 
 Optimized for a Real-space Cutoff    1.28 Angstroem

   l    n(q)    QCUT    max X(q) W(low)/X(q) W(high)/X(q)  e(spline) 
   0      8    10.397     4.906    0.88E-04    0.12E-03    0.10E-06
   0      8    10.397     5.365    0.36E-03    0.60E-03    0.19E-06
   1      7    10.397     2.511    0.10E-03    0.70E-04    0.37E-07
   1      7    10.397     3.801    0.41E-03    0.42E-03    0.13E-06
 PAW_PBE Mo_pv 08Apr2002                :
 energy of atom  1       EATOM=-1284.3009
 kinetic energy error for atom=    0.0044 (will be added to EATOM!!)
 PAW_PBE N 08Apr2002                    :
 energy of atom  2       EATOM= -264.5486
 kinetic energy error for atom=    0.0527 (will be added to EATOM!!)
 PAW_PBE F 08Apr2002                    :
 energy of atom  3       EATOM= -659.4942
 kinetic energy error for atom=    0.1401 (will be added to EATOM!!)
 
 
 POSCAR: Mo4N3  (n=3)                            
  positions in direct lattice
  velocities in cartesian coordinates
  No initial velocities read in
 exchange correlation table for  LEXCH =        8
   RHO(1)=    0.500       N(1)  =     2000
   RHO(2)=  100.500       N(2)  =     4000
 


--------------------------------------------------------------------------------------------------------


 ion  position               nearest neighbor table
   1  0.000  0.000  0.025-   8 1.90   8 1.90   8 1.90   5 2.12   5 2.12   5 2.12   2 3.36   2 3.36
                             2 3.36
   2  0.667  0.333  0.097-   6 2.18   6 2.18   6 2.18   5 2.25   5 2.25   5 2.25   3 3.34   3 3.34
                             3 3.34   1 3.36   1 3.36   1 3.36
   3  0.333  0.667  0.168-   6 2.18   6 2.18   6 2.18   7 2.25   7 2.25   7 2.25   2 3.34   2 3.34
                             2 3.34   4 3.36   4 3.36   4 3.36
   4  0.000  0.000  0.240-   9 1.90   9 1.90   9 1.90   7 2.12   7 2.12   7 2.12   3 3.36   3 3.36
                             3 3.36
   5  0.333  0.667  0.058-   1 2.12   1 2.12   1 2.12   2 2.25   2 2.25   2 2.25
   6  0.000  0.000  0.132-   2 2.18   3 2.18   3 2.18   2 2.18   2 2.18   3 2.18
   7  0.667  0.333  0.207-   4 2.12   4 2.12   4 2.12   3 2.25   3 2.25   3 2.25
   8  0.667  0.333  0.000-   1 1.90   1 1.90   1 1.90
   9  0.333  0.667  0.265-   4 1.90   4 1.90   4 1.90
 
  LATTYP: Found a hexagonal cell.
 ALAT       =     2.8018646994
 C/A-ratio  =    14.5636931119
  
  Lattice vectors:
  
 A1 = (   2.8018646994,   0.0000000000,   0.0000000000)
 A2 = (  -1.4009323497,   2.4264860077,   0.0000000000)
 A3 = (  -0.0000000000,   0.0000000000,  40.8054976239)


Analysis of symmetry for initial positions (statically):
=====================================================================
 Subroutine PRICEL returns:
 Original cell was already a primitive cell.
 

 Routine SETGRP: Setting up the symmetry group for a 
 hexagonal supercell.


 Subroutine GETGRP returns: Found 12 space group operations
 (whereof  6 operations were pure point group operations)
 out of a pool of 24 trial point group operations.


The static configuration has the point symmetry C_3v.
 The point group associated with its full space group is D_3d.


Analysis of symmetry for dynamics (positions and initial velocities):
=====================================================================
 Subroutine PRICEL returns:
 Original cell was already a primitive cell.
 

 Routine SETGRP: Setting up the symmetry group for a 
 hexagonal supercell.


 Subroutine GETGRP returns: Found 12 space group operations
 (whereof  6 operations were pure point group operations)
 out of a pool of 24 trial point group operations.


The dynamic configuration has the point symmetry C_3v.
 The point group associated with its full space group is D_3d.


Analysis of constrained symmetry for selective dynamics:
=====================================================================
 Subroutine PRICEL returns:
 Original cell was already a primitive cell.
 

 Routine SETGRP: Setting up the symmetry group for a 
 hexagonal supercell.


 Subroutine GETGRP returns: Found 12 space group operations
 (whereof  6 operations were pure point group operations)
 out of a pool of 24 trial point group operations.


The constrained configuration has the point symmetry C_3v.
 The point group associated with its full space group is D_3d.


Analysis of structural, dynamic, and magnetic symmetry:
=====================================================================
 Subroutine PRICEL returns:
 Original cell was already a primitive cell.
 

 Routine SETGRP: Setting up the symmetry group for a 
 hexagonal supercell.


 Subroutine GETGRP returns: Found 12 space group operations
 (whereof  6 operations were pure point group operations)
 out of a pool of 24 trial point group operations.


The magnetic configuration has the point symmetry C_3v.
 The point group associated with its full space group is D_3d.


 Subroutine INISYM returns: Found 12 space group operations
 (whereof  6 operations are pure point group operations),
 and found     1 'primitive' translations

 
 
 KPOINTS: K-Points                                

Automatic generation of k-mesh.
Space group operators:
 irot       det(A)        alpha          n_x          n_y          n_z        tau_x        tau_y        tau_z
    1     1.000000     0.000000     1.000000     0.000000     0.000000     0.000000     0.000000     0.000000
    2     1.000000   120.000000     0.000000     0.000000    -1.000000     0.000000     0.000000     0.000000
    3     1.000000   120.000000    -0.000000     0.000000     1.000000     0.000000     0.000000     0.000000
    4    -1.000000   179.999999     1.000000     0.000000     0.000000     0.000000     0.000000     0.000000
    5    -1.000000   180.000000    -0.500000     0.866025    -0.000000     0.000000     0.000000     0.000000
    6    -1.000000   180.000000     0.500000     0.866025     0.000000     0.000000     0.000000     0.000000
    7    -1.000000     0.000000     1.000000     0.000000     0.000000    -0.000000     0.000000     0.264805
    8    -1.000000   120.000000     0.000000     0.000000    -1.000000     0.000000     0.000000     0.264805
    9    -1.000000   120.000000    -0.000000     0.000000     1.000000    -0.000000     0.000000     0.264805
   10     1.000000   179.999999     1.000000     0.000000     0.000000    -0.000000     0.000000     0.264805
   11     1.000000   180.000000    -0.500000     0.866025    -0.000000     0.000000     0.000000     0.264805
   12     1.000000   180.000000     0.500000     0.866025     0.000000    -0.000000     0.000000     0.264805
 
 Subroutine IBZKPT returns following result:
 ===========================================
 
 Found      8 irreducible k-points:
 
 Following reciprocal coordinates:
            Coordinates               Weight
  0.000000  0.000000  0.000000      1.000000
  0.142857  0.000000 -0.000000      6.000000
  0.285714 -0.000000  0.000000      6.000000
  0.428571 -0.000000  0.000000      6.000000
  0.142857  0.142857 -0.000000      6.000000
  0.285714  0.142857  0.000000     12.000000
  0.428571  0.142857  0.000000      6.000000
  0.285714  0.285714  0.000000      6.000000
 
 Following cartesian coordinates:
            Coordinates               Weight
  0.000000  0.000000  0.000000      1.000000
  0.050986  0.029437  0.000000      6.000000
  0.101973  0.058874  0.000000      6.000000
  0.152959  0.088311  0.000000      6.000000
  0.050986  0.088311  0.000000      6.000000
  0.101973  0.117748  0.000000     12.000000
  0.152959  0.147185  0.000000      6.000000
  0.101973  0.176622  0.000000      6.000000
 


--------------------------------------------------------------------------------------------------------




 Dimension of arrays:
   k-points           NKPTS =      8   k-points in BZ     NKDIM =      8   number of bands    NBANDS=     96
   number of dos      NEDOS =    301   number of ions     NIONS =      9
   non local maximal  LDIM  =      6   non local SUM 2l+1 LMDIM =     18
   total plane-waves  NPLWV =  41160
   max r-space proj   IRMAX =   2928   max aug-charges    IRDMAX=   8060
   dimension x,y,z NGX =    14 NGY =   14 NGZ =  210
   dimension x,y,z NGXF=    28 NGYF=   28 NGZF=  420
   support grid    NGXF=    28 NGYF=   28 NGZF=  420
   ions per type =               4   3   2
   NGX,Y,Z   is equivalent  to a cutoff of   8.31,  8.31,  8.56 a.u.
   NGXF,Y,Z  is equivalent  to a cutoff of  16.61, 16.61, 17.11 a.u.

 SYSTEM =  Mo4N3F2                                 
 POSCAR =  Mo4N3  (n=3)                            

 Startparameter for this run:
   NWRITE =      2    write-flag & timer
   PREC   = normal    normal or accurate (medium, high low for compatibility)
   ISTART =      0    job   : 0-new  1-cont  2-samecut
   ICHARG =      2    charge: 1-file 2-atom 10-const
   ISPIN  =      2    spin polarized calculation?
   LNONCOLLINEAR =      F non collinear calculations
   LSORBIT =      F    spin-orbit coupling
   INIWAV =      1    electr: 0-lowe 1-rand  2-diag
   LASPH  =      F    aspherical Exc in radial PAW
   METAGGA=      F    non-selfconsistent MetaGGA calc.

 Electronic Relaxation 1
   ENCUT  =  415.0 eV  30.50 Ry    5.52 a.u.   4.65  4.65 67.78*2*pi/ulx,y,z
   ENINI  =  415.0     initial cutoff
   ENAUG  =  627.1 eV  augmentation charge cutoff
   NELM   =    101;   NELMIN=  2; NELMDL= -5     # of ELM steps 
   EDIFF  = 0.1E-05   stopping-criterion for ELM
   LREAL  =      T    real-space projection
   NLSPLINE    = F    spline interpolate recip. space projectors
   LCOMPAT=      F    compatible to vasp.4.4
   GGA_COMPAT  = T    GGA compatible to vasp.4.4-vasp.4.6
   LMAXPAW     = -100 max onsite density
   LMAXMIX     =    2 max onsite mixed and CHGCAR
   VOSKOWN=      0    Vosko Wilk Nusair interpolation
   ROPT   =   -0.00050  -0.00050  -0.00050
 Ionic relaxation
   EDIFFG = -.1E-01   stopping-criterion for IOM
   NSW    =    101    number of steps for IOM
   NBLOCK =      1;   KBLOCK =    101    inner block; outer block 
   IBRION =      2    ionic relax: 0-MD 1-quasi-New 2-CG
   NFREE  =      1    steps in history (QN), initial steepest desc. (CG)
   ISIF   =      4    stress and relaxation
   IWAVPR =     11    prediction:  0-non 1-charg 2-wave 3-comb
   ISYM   =      2    0-nonsym 1-usesym 2-fastsym
   LCORR  =      T    Harris-Foulkes like correction to forces

   POTIM  = 0.5000    time-step for ionic-motion
   TEIN   =    0.0    initial temperature
   TEBEG  =    0.0;   TEEND  =   0.0 temperature during run
   SMASS  =  -3.00    Nose mass-parameter (am)
   estimated Nose-frequenzy (Omega)   =  0.10E-29 period in steps =****** mass=  -0.179E-27a.u.
   SCALEE = 1.0000    scale energy and forces
   NPACO  =    256;   APACO  = 16.0  distance and # of slots for P.C.
   PSTRESS=    0.0 pullay stress

  Mass of Ions in am
   POMASS =  95.94 14.00 19.00
  Ionic Valenz
   ZVAL   =  12.00  5.00  7.00
  Atomic Wigner-Seitz radii
   RWIGS  =  -1.00 -1.00 -1.00
  virtual crystal weights 
   VCA    =   1.00  1.00  1.00
   NELECT =      77.0000    total number of electrons
   NUPDOWN=      -1.0000    fix difference up-down

 DOS related values:
   EMIN   =  10.00;   EMAX   =-10.00  energy-range for DOS
   EFERMI =   0.00
   ISMEAR =     0;   SIGMA  =   0.04  broadening in eV -4-tet -1-fermi 0-gaus

 Electronic relaxation 2 (details)
   IALGO  =     38    algorithm
   LDIAG  =      T    sub-space diagonalisation (order eigenvalues)
   LSUBROT=      F    optimize rotation matrix (better conditioning)
   TURBO    =      0    0=normal 1=particle mesh
   IRESTART =      0    0=no restart 2=restart with 2 vectors
   NREBOOT  =      0    no. of reboots
   NMIN     =      0    reboot dimension
   EREF     =   0.00    reference energy to select bands
   IMIX   =      4    mixing-type and parameters
     AMIX     =   0.40;   BMIX     =  1.00
     AMIX_MAG =   1.60;   BMIX_MAG =  1.00
     AMIN     =   0.10
     WC   =   100.;   INIMIX=   1;  MIXPRE=   1;  MAXMIX= -45

 Intra band minimization:
   WEIMIN = 0.0010     energy-eigenvalue tresh-hold
   EBREAK =  0.26E-08  absolut break condition
   DEPER  =   0.30     relativ break condition  

   TIME   =   0.40     timestep for ELM

  volume/ion in A,a.u.               =      30.82       208.02
  Fermi-wavevector in a.u.,A,eV,Ry     =   1.067883  2.018007 15.515745  1.140375
  Thomas-Fermi vector in A             =   2.203514
 
 Write flags
   LWAVE        =      F    write WAVECAR
   LDOWNSAMPLE  =      F    k-point downsampling of WAVECAR
   LCHARG       =      T    write CHGCAR
   LVTOT        =      F    write LOCPOT, total local potential
   LVHAR        =      F    write LOCPOT, Hartree potential only
   LELF         =      F    write electronic localiz. function (ELF)
   LORBIT       =      0    0 simple, 1 ext, 2 COOP (PROOUT), +10 PAW based schemes


 Dipole corrections
   LMONO  =      F    monopole corrections only (constant potential shift)
   LDIPOL =      F    correct potential (dipole corrections)
   IDIPOL =      0    1-x, 2-y, 3-z, 4-all directions 
   EPSILON=  1.0000000 bulk dielectric constant

 Exchange correlation treatment:
   GGA     =    PE    GGA type
   LEXCH   =     8    internal setting for exchange type
   VOSKOWN=      0    Vosko Wilk Nusair interpolation
   LHFCALC =     F    Hartree Fock is set to
   LHFONE  =     F    Hartree Fock one center treatment
   AEXX    =    0.0000 exact exchange contribution

 Linear response parameters
   LEPSILON=     F    determine dielectric tensor
   LRPA    =     F    only Hartree local field effects (RPA)
   LNABLA  =     F    use nabla operator in PAW spheres
   LVEL    =     F    velocity operator in full k-point grid
   LINTERFAST=   F  fast interpolation
   KINTER  =     0    interpolate to denser k-point grid
   CSHIFT  =0.1000    complex shift for real part using Kramers Kronig
   OMEGAMAX=  -1.0    maximum frequency
   DEG_THRESHOLD= 0.2000000E-02 threshold for treating states as degnerate
   RTIME   =   -0.100 relaxation time in fs
  (WPLASMAI=    0.000 imaginary part of plasma frequency in eV, 0.658/RTIME)
   DFIELD  = 0.0000000 0.0000000 0.0000000 field for delta impulse in time
 
 Orbital magnetization related:
   ORBITALMAG=     F  switch on orbital magnetization
   LCHIMAG   =     F  perturbation theory with respect to B field
   DQ        =  0.001000  dq finite difference perturbation B field
   LLRAUG    =     F  two centre corrections for induced B field



--------------------------------------------------------------------------------------------------------


 conjugate gradient relaxation of ions
   using selective dynamics as specified on POSCAR
 charge density and potential will be updated during run
 spin polarized calculation
 Variant of blocked Davidson
 Davidson routine will perform the subspace rotation
 perform sub-space diagonalisation
    after iterative eigenvector-optimisation
 modified Broyden-mixing scheme, WC =      100.0
 initial mixing is a Kerker type mixing with AMIX =  0.4000 and BMIX =      1.0000
 Hartree-type preconditioning will be used
 using additional bands           57
 real space projection scheme for non local part
 use partial core corrections
 calculate Harris-corrections to forces 
   (improved forces if not selfconsistent)
 use gradient corrections 
 use of overlap-Matrix (Vanderbilt PP)
 Gauss-broadening in eV      SIGMA  =   0.04


--------------------------------------------------------------------------------------------------------


  energy-cutoff  :      415.00
  volume of cell :      277.42
      direct lattice vectors                 reciprocal lattice vectors
     2.801864699  0.000000000  0.000000000     0.356905171  0.206059297  0.000000000
    -1.400932350  2.426486008  0.000000000     0.000000000  0.412118593  0.000000000
    -0.000000000  0.000000000 40.805497624     0.000000000  0.000000000  0.024506502

  length of vectors
     2.801864699  2.801864699 40.805497624     0.412118593  0.412118593  0.024506502


 
 k-points in units of 2pi/SCALE and weight: K-Points                                
   0.00000000  0.00000000  0.00000000       0.020
   0.05098645  0.02943704  0.00000000       0.122
   0.10197291  0.05887408  0.00000000       0.122
   0.15295936  0.08831113  0.00000000       0.122
   0.05098645  0.08831113  0.00000000       0.122
   0.10197291  0.11774817  0.00000000       0.245
   0.15295936  0.14718521  0.00000000       0.122
   0.10197291  0.17662225  0.00000000       0.122
 
 k-points in reciprocal lattice and weights: K-Points                                
   0.00000000  0.00000000  0.00000000       0.020
   0.14285714  0.00000000 -0.00000000       0.122
   0.28571429 -0.00000000  0.00000000       0.122
   0.42857143 -0.00000000  0.00000000       0.122
   0.14285714  0.14285714 -0.00000000       0.122
   0.28571429  0.14285714  0.00000000       0.245
   0.42857143  0.14285714  0.00000000       0.122
   0.28571429  0.28571429  0.00000000       0.122
 
 position of ions in fractional coordinates (direct lattice) 
   0.00000000  0.00000000  0.02450650
   0.66666667  0.33333333  0.09663077
   0.33333333  0.66666667  0.16817418
   0.00000000  0.00000000  0.24029844
   0.33333333  0.66666667  0.05818383
   0.00000000  0.00000000  0.13240247
   0.66666667  0.33333333  0.20662112
   0.66666667  0.33333333  0.00000000
   0.33333333  0.66666667  0.26480495
 
 position of ions in cartesian coordinates  (Angst):
  -0.00000000  0.00000000  1.00000000
   1.40093235  0.80882867  3.94306652
   0.00000000  1.61765734  6.86243110
  -0.00000000  0.00000000  9.80549762
   0.00000000  1.61765734  2.37422002
  -0.00000000  0.00000000  5.40274881
   1.40093235  0.80882867  8.43127760
   1.40093235  0.80882867  0.00000000
   0.00000000  1.61765734 10.80549762
 


--------------------------------------------------------------------------------------------------------


 k-point  1 :   0.0000 0.0000 0.0000  plane waves:    5391
 k-point  2 :   0.1429 0.0000-0.0000  plane waves:    5366
 k-point  3 :   0.2857-0.0000 0.0000  plane waves:    5354
 k-point  4 :   0.4286-0.0000 0.0000  plane waves:    5336
 k-point  5 :   0.1429 0.1429-0.0000  plane waves:    5357
 k-point  6 :   0.2857 0.1429 0.0000  plane waves:    5328
 k-point  7 :   0.4286 0.1429 0.0000  plane waves:    5284
 k-point  8 :   0.2857 0.2857 0.0000  plane waves:    5265

 maximum and minimum number of plane-waves per node :      5391     5265

 maximum number of plane-waves:      5391
 maximum index in each direction: 
   IXMAX=    4   IYMAX=    4   IZMAX=   67
   IXMIN=   -5   IYMIN=   -4   IZMIN=  -67


 serial   3D FFT for wavefunctions
 parallel 3D FFT for charge:
    minimum data exchange during FFTs selected (reduces bandwidth)


 total amount of memory used by VASP MPI-rank0    40789. kBytes
=======================================================================

   base      :      30000. kBytes
   nonlr-proj:       2782. kBytes
   fftplans  :        541. kBytes
   grid      :       4337. kBytes
   one-center:        279. kBytes
   wavefun   :       2850. kBytes
 
     INWAV:  cpu time    0.0000: real time    0.0002
 Broyden mixing: mesh for mixing (old mesh)
   NGX =  9   NGY =  9   NGZ =135
  (NGX  = 28   NGY  = 28   NGZ  =420)
  gives a total of  10935 points

 initial charge density was supplied:
 charge density of overlapping atoms calculated
 number of electron      77.0000000 magnetization       9.0000000
 keeping initial charge density in first step


--------------------------------------------------------------------------------------------------------


 Maximum index for non-local projection operator         2820
 Maximum index for augmentation-charges          430 (set IRDMAX)


--------------------------------------------------------------------------------------------------------


 First call to EWALD:  gamma=   0.272
 Maximum number of real-space cells 7x 7x 1
 Maximum number of reciprocal cells 1x 1x15

    FEWALD:  cpu time    0.0018: real time    0.0036


--------------------------------------- Iteration      1(   1)  ---------------------------------------


    POTLOK:  cpu time    0.0203: real time    0.0305
    SETDIJ:  cpu time    0.0054: real time    0.0070
     EDDAV:  cpu time    1.1464: real time    1.1877
       DOS:  cpu time    0.0021: real time    0.0034
    --------------------------------------------
      LOOP:  cpu time    1.1743: real time    1.2287

 eigenvalue-minimisations  :  3072
 total energy-change (2. order) : 0.5323138E+03  (-0.3706674E+04)
 number of electron      77.0000000 magnetization       9.0000000
 augmentation part       77.0000000 magnetization       9.0000000

 Free energy of the ion-electron system (eV)
  ---------------------------------------------------
  alpha Z        PSCENC =       221.66583342
  Ewald energy   TEWEN  =    121628.23025617
  -Hartree energ DENC   =   -128119.23267417
  -exchange      EXHF   =         0.00000000
  -V(xc)+E(xc)   XCENC  =       290.17092090
  PAW double counting   =      4780.79267529    -4716.95252296
  entropy T*S    EENTRO =        -0.00542453
  eigenvalues    EBANDS =      -801.73700452
  atomic energy  EATOM  =      7249.38178018
  Solvation  Ediel_sol  =         0.00000000
  ---------------------------------------------------
  free energy    TOTEN  =       532.31383978 eV

  energy without entropy =      532.31926431  energy(sigma->0) =      532.31655205


--------------------------------------------------------------------------------------------------------




--------------------------------------- Iteration      1(   2)  ---------------------------------------


     EDDAV:  cpu time    1.5130: real time    1.5172
       DOS:  cpu time    0.0018: real time    0.0018
    --------------------------------------------
      LOOP:  cpu time    1.5148: real time    1.5190

 eigenvalue-minimisations  :  3936
 total energy-change (2. order) :-0.5940428E+03  (-0.5655187E+03)
 number of electron      77.0000000 magnetization       9.0000000
 augmentation part       77.0000000 magnetization       9.0000000

 Free energy of the ion-electron system (eV)
  ---------------------------------------------------
  alpha Z        PSCENC =       221.66583342
  Ewald energy   TEWEN  =    121628.23025617
  -Hartree energ DENC   =   -128119.23267417
  -exchange      EXHF   =         0.00000000
  -V(xc)+E(xc)   XCENC  =       290.17092090
  PAW double counting   =      4780.79267529    -4716.95252296
  entropy T*S    EENTRO =        -0.00302790
  eigenvalues    EBANDS =     -1395.78222208
  atomic energy  EATOM  =      7249.38178018
  Solvation  Ediel_sol  =         0.00000000
  ---------------------------------------------------
  free energy    TOTEN  =       -61.72898115 eV

  energy without entropy =      -61.72595325  energy(sigma->0) =      -61.72746720


--------------------------------------------------------------------------------------------------------




--------------------------------------- Iteration      1(   3)  ---------------------------------------


     EDDAV:  cpu time    1.6296: real time    1.6352
       DOS:  cpu time    0.0018: real time    0.0018
    --------------------------------------------
      LOOP:  cpu time    1.6314: real time    1.6370

 eigenvalue-minimisations  :  4128
 total energy-change (2. order) :-0.2033731E+02  (-0.2028324E+02)
 number of electron      77.0000000 magnetization       9.0000000
 augmentation part       77.0000000 magnetization       9.0000000

 Free energy of the ion-electron system (eV)
  ---------------------------------------------------
  alpha Z        PSCENC =       221.66583342
  Ewald energy   TEWEN  =    121628.23025617
  -Hartree energ DENC   =   -128119.23267417
  -exchange      EXHF   =         0.00000000
  -V(xc)+E(xc)   XCENC  =       290.17092090
  PAW double counting   =      4780.79267529    -4716.95252296
  entropy T*S    EENTRO =        -0.00404642
  eigenvalues    EBANDS =     -1416.11851348
  atomic energy  EATOM  =      7249.38178018
  Solvation  Ediel_sol  =         0.00000000
  ---------------------------------------------------
  free energy    TOTEN  =       -82.06629107 eV

  energy without entropy =      -82.06224465  energy(sigma->0) =      -82.06426786


--------------------------------------------------------------------------------------------------------




--------------------------------------- Iteration      1(   4)  ---------------------------------------


     EDDAV:  cpu time    1.4796: real time    1.4918
       DOS:  cpu time    0.0019: real time    0.0019
    --------------------------------------------
      LOOP:  cpu time    1.4815: real time    1.4937

 eigenvalue-minimisations  :  3744
 total energy-change (2. order) :-0.1884810E+00  (-0.1884689E+00)
 number of electron      77.0000000 magnetization       9.0000000
 augmentation part       77.0000000 magnetization       9.0000000

 Free energy of the ion-electron system (eV)
  ---------------------------------------------------
  alpha Z        PSCENC =       221.66583342
  Ewald energy   TEWEN  =    121628.23025617
  -Hartree energ DENC   =   -128119.23267417
  -exchange      EXHF   =         0.00000000
  -V(xc)+E(xc)   XCENC  =       290.17092090
  PAW double counting   =      4780.79267529    -4716.95252296
  entropy T*S    EENTRO =        -0.00409530
  eigenvalues    EBANDS =     -1416.30694559
  atomic energy  EATOM  =      7249.38178018
  Solvation  Ediel_sol  =         0.00000000
  ---------------------------------------------------
  free energy    TOTEN  =       -82.25477206 eV

  energy without entropy =      -82.25067676  energy(sigma->0) =      -82.25272441


--------------------------------------------------------------------------------------------------------




--------------------------------------- Iteration      1(   5)  ---------------------------------------


     EDDAV:  cpu time    1.6124: real time    1.6165
       DOS:  cpu time    0.0017: real time    0.0017
    CHARGE:  cpu time    0.0290: real time    0.0297
    MIXING:  cpu time    0.0010: real time    0.0016
    --------------------------------------------
      LOOP:  cpu time    1.6441: real time    1.6496

 eigenvalue-minimisations  :  4032
 total energy-change (2. order) :-0.3114498E-02  (-0.3113119E-02)
 number of electron      76.9999976 magnetization       8.7265573
 augmentation part       21.2609344 magnetization       7.6374006

 Broyden mixing:
  rms(total) = 0.24119E+01    rms(broyden)= 0.24111E+01
  rms(prec ) = 0.24758E+01
  weight for this iteration     100.00

 Free energy of the ion-electron system (eV)
  ---------------------------------------------------
  alpha Z        PSCENC =       221.66583342
  Ewald energy   TEWEN  =    121628.23025617
  -Hartree energ DENC   =   -128119.23267417
  -exchange      EXHF   =         0.00000000
  -V(xc)+E(xc)   XCENC  =       290.17092090
  PAW double counting   =      4780.79267529    -4716.95252296
  entropy T*S    EENTRO =        -0.00409630
  eigenvalues    EBANDS =     -1416.31005909
  atomic energy  EATOM  =      7249.38178018
  Solvation  Ediel_sol  =         0.00000000
  ---------------------------------------------------
  free energy    TOTEN  =       -82.25788656 eV

  energy without entropy =      -82.25379026  energy(sigma->0) =      -82.25583841


--------------------------------------------------------------------------------------------------------




--------------------------------------- Iteration      1(   6)  ---------------------------------------


    POTLOK:  cpu time    0.0151: real time    0.0153
    SETDIJ:  cpu time    0.0048: real time    0.0048
     EDDAV:  cpu time    1.6633: real time    1.6658
       DOS:  cpu time    0.0015: real time    0.0015
    CHARGE:  cpu time    0.0285: real time    0.0285
    MIXING:  cpu time    0.0008: real time    0.0041
    --------------------------------------------
      LOOP:  cpu time    1.7140: real time    1.7200

 eigenvalue-minimisations  :  4176
 total energy-change (2. order) : 0.1363493E+02  (-0.9971793E+01)
 number of electron      76.9999991 magnetization       8.5820689
 augmentation part       22.3920573 magnetization       6.5413418

 Broyden mixing:
  rms(total) = 0.15103E+01    rms(broyden)= 0.15096E+01
  rms(prec ) = 0.17140E+01
  weight for this iteration     100.00

 eigenvalues of (default mixing * dielectric matrix)
  average eigenvalue GAMMA=   0.7289
  0.7289

 Free energy of the ion-electron system (eV)
  ---------------------------------------------------
  alpha Z        PSCENC =       221.66583342
  Ewald energy   TEWEN  =    121628.23025617
  -Hartree energ DENC   =   -128244.95414463
  -exchange      EXHF   =         0.00000000
  -V(xc)+E(xc)   XCENC  =       295.26303601
  PAW double counting   =      4925.39682723    -4873.45282148
  entropy T*S    EENTRO =        -0.00947347
  eigenvalues    EBANDS =     -1270.14425248
  atomic energy  EATOM  =      7249.38178018
  Solvation  Ediel_sol  =         0.00000000
  ---------------------------------------------------
  free energy    TOTEN  =       -68.62295905 eV

  energy without entropy =      -68.61348558  energy(sigma->0) =      -68.61822231


--------------------------------------------------------------------------------------------------------




--------------------------------------- Iteration      1(   7)  ---------------------------------------


    POTLOK:  cpu time    0.0149: real time    0.0153
    SETDIJ:  cpu time    0.0048: real time    0.0048
     EDDAV:  cpu time    1.9531: real time    1.9556
       DOS:  cpu time    0.0015: real time    0.0015
    CHARGE:  cpu time    0.0280: real time    0.0280
    MIXING:  cpu time    0.0004: real time    0.0004
    --------------------------------------------
      LOOP:  cpu time    2.0027: real time    2.0056

 eigenvalue-minimisations  :  4704
 total energy-change (2. order) :-0.1138319E+02  (-0.2751101E+02)
 number of electron      76.9999974 magnetization       8.5020699
 augmentation part       22.0855313 magnetization       6.4854218

 Broyden mixing:
  rms(total) = 0.21740E+01    rms(broyden)= 0.21736E+01
  rms(prec ) = 0.27199E+01
  weight for this iteration     100.00

 eigenvalues of (default mixing * dielectric matrix)
  average eigenvalue GAMMA=   0.5098
  0.7718  0.2479

 Free energy of the ion-electron system (eV)
  ---------------------------------------------------
  alpha Z        PSCENC =       221.66583342
  Ewald energy   TEWEN  =    121628.23025617
  -Hartree energ DENC   =   -128110.05110066
  -exchange      EXHF   =         0.00000000
  -V(xc)+E(xc)   XCENC  =       294.92791184
  PAW double counting   =      5083.87046617    -5032.62000436
  entropy T*S    EENTRO =        -0.00810840
  eigenvalues    EBANDS =     -1415.40318408
  atomic energy  EATOM  =      7249.38178018
  Solvation  Ediel_sol  =         0.00000000
  ---------------------------------------------------
  free energy    TOTEN  =       -80.00614973 eV

  energy without entropy =      -79.99804133  energy(sigma->0) =      -80.00209553


--------------------------------------------------------------------------------------------------------




--------------------------------------- Iteration      1(   8)  ---------------------------------------


    POTLOK:  cpu time    0.0152: real time    0.0154
    SETDIJ:  cpu time    0.0048: real time    0.0048
     EDDAV:  cpu time    2.1261: real time    2.1294
       DOS:  cpu time    0.0014: real time    0.0014
    CHARGE:  cpu time    0.0281: real time    0.0281
    MIXING:  cpu time    0.0004: real time    0.0004
    --------------------------------------------
      LOOP:  cpu time    2.1760: real time    2.1795

 eigenvalue-minimisations  :  5184
 total energy-change (2. order) : 0.1376995E+02  (-0.1383209E+02)
 number of electron      76.9999986 magnetization       8.1971590
 augmentation part       21.8248461 magnetization       6.3434052

 Broyden mixing:
  rms(total) = 0.66761E+00    rms(broyden)= 0.66724E+00
  rms(prec ) = 0.67573E+00
  weight for this iteration     100.00

 eigenvalues of (default mixing * dielectric matrix)
  average eigenvalue GAMMA=   0.6297
  1.0013  0.6755  0.2124

 Free energy of the ion-electron system (eV)
  ---------------------------------------------------
  alpha Z        PSCENC =       221.66583342
  Ewald energy   TEWEN  =    121628.23025617
  -Hartree energ DENC   =   -128236.45757226
  -exchange      EXHF   =         0.00000000
  -V(xc)+E(xc)   XCENC  =       294.83277455
  PAW double counting   =      5139.77845023    -5088.96966782
  entropy T*S    EENTRO =        -0.00439924
  eigenvalues    EBANDS =     -1274.69365573
  atomic energy  EATOM  =      7249.38178018
  Solvation  Ediel_sol  =         0.00000000
  ---------------------------------------------------
  free energy    TOTEN  =       -66.23620051 eV

  energy without entropy =      -66.23180127  energy(sigma->0) =      -66.23400089


--------------------------------------------------------------------------------------------------------




--------------------------------------- Iteration      1(   9)  ---------------------------------------


    POTLOK:  cpu time    0.0152: real time    0.0154
    SETDIJ:  cpu time    0.0048: real time    0.0048
     EDDAV:  cpu time    1.7144: real time    1.7175
       DOS:  cpu time    0.0013: real time    0.0013
    CHARGE:  cpu time    0.0280: real time    0.0280
    MIXING:  cpu time    0.0005: real time    0.0005
    --------------------------------------------
      LOOP:  cpu time    1.7642: real time    1.7674

 eigenvalue-minimisations  :  4272
 total energy-change (2. order) :-0.2620733E+00  (-0.1090527E+00)
 number of electron      76.9999986 magnetization       7.5577685
 augmentation part       21.9454316 magnetization       5.7121064

 Broyden mixing:
  rms(total) = 0.54586E+00    rms(broyden)= 0.54582E+00
  rms(prec ) = 0.55660E+00
  weight for this iteration     100.00

 eigenvalues of (default mixing * dielectric matrix)
  average eigenvalue GAMMA=   0.9917
  2.2176  0.2185  0.6194  0.9115

 Free energy of the ion-electron system (eV)
  ---------------------------------------------------
  alpha Z        PSCENC =       221.66583342
  Ewald energy   TEWEN  =    121628.23025617
  -Hartree energ DENC   =   -128271.90624291
  -exchange      EXHF   =         0.00000000
  -V(xc)+E(xc)   XCENC  =       294.17208563
  PAW double counting   =      5276.65211628    -5229.39095791
  entropy T*S    EENTRO =        -0.00463051
  eigenvalues    EBANDS =     -1235.29851415
  atomic energy  EATOM  =      7249.38178018
  Solvation  Ediel_sol  =         0.00000000
  ---------------------------------------------------
  free energy    TOTEN  =       -66.49827380 eV

  energy without entropy =      -66.49364329  energy(sigma->0) =      -66.49595854


--------------------------------------------------------------------------------------------------------




--------------------------------------- Iteration      1(  10)  ---------------------------------------


    POTLOK:  cpu time    0.0150: real time    0.0154
    SETDIJ:  cpu time    0.0048: real time    0.0048
     EDDAV:  cpu time    1.8401: real time    1.8446
       DOS:  cpu time    0.0013: real time    0.0013
    CHARGE:  cpu time    0.0284: real time    0.0284
    MIXING:  cpu time    0.0005: real time    0.0005
    --------------------------------------------
      LOOP:  cpu time    1.8901: real time    1.8949

 eigenvalue-minimisations  :  4512
 total energy-change (2. order) :-0.6792769E+00  (-0.7283945E-01)
 number of electron      76.9999986 magnetization       7.2527287
 augmentation part       21.9609856 magnetization       5.4526072

 Broyden mixing:
  rms(total) = 0.41421E+00    rms(broyden)= 0.41420E+00
  rms(prec ) = 0.41545E+00
  weight for this iteration     100.00

 eigenvalues of (default mixing * dielectric matrix)
  average eigenvalue GAMMA=   1.0543
  2.6143  0.2183  0.9743  0.6530  0.8114

 Free energy of the ion-electron system (eV)
  ---------------------------------------------------
  alpha Z        PSCENC =       221.66583342
  Ewald energy   TEWEN  =    121628.23025617
  -Hartree energ DENC   =   -128322.84464157
  -exchange      EXHF   =         0.00000000
  -V(xc)+E(xc)   XCENC  =       293.38117200
  PAW double counting   =      5483.04647005    -5439.73704950
  entropy T*S    EENTRO =        -0.00601292
  eigenvalues    EBANDS =     -1180.29535854
  atomic energy  EATOM  =      7249.38178018
  Solvation  Ediel_sol  =         0.00000000
  ---------------------------------------------------
  free energy    TOTEN  =       -67.17755070 eV

  energy without entropy =      -67.17153779  energy(sigma->0) =      -67.17454425


--------------------------------------------------------------------------------------------------------




--------------------------------------- Iteration      1(  11)  ---------------------------------------


    POTLOK:  cpu time    0.0151: real time    0.0155
    SETDIJ:  cpu time    0.0048: real time    0.0048
     EDDAV:  cpu time    1.4838: real time    1.4865
       DOS:  cpu time    0.0014: real time    0.0014
    CHARGE:  cpu time    0.0282: real time    0.0282
    MIXING:  cpu time    0.0005: real time    0.0005
    --------------------------------------------
      LOOP:  cpu time    1.5338: real time    1.5368

 eigenvalue-minimisations  :  3840
 total energy-change (2. order) :-0.9182196E+00  (-0.3245816E-01)
 number of electron      76.9999986 magnetization       6.3550461
 augmentation part       21.9270756 magnetization       4.7368503

 Broyden mixing:
  rms(total) = 0.39219E+00    rms(broyden)= 0.39218E+00
  rms(prec ) = 0.39344E+00
  weight for this iteration     100.00

 eigenvalues of (default mixing * dielectric matrix)
  average eigenvalue GAMMA=   1.1968
  2.7457  1.9598  0.2183  0.8838  0.6865  0.6865

 Free energy of the ion-electron system (eV)
  ---------------------------------------------------
  alpha Z        PSCENC =       221.66583342
  Ewald energy   TEWEN  =    121628.23025617
  -Hartree energ DENC   =   -128329.24760439
  -exchange      EXHF   =         0.00000000
  -V(xc)+E(xc)   XCENC  =       292.87012686
  PAW double counting   =      5479.91398479    -5436.18097506
  entropy T*S    EENTRO =        -0.00567182
  eigenvalues    EBANDS =     -1174.72350043
  atomic energy  EATOM  =      7249.38178018
  Solvation  Ediel_sol  =         0.00000000
  ---------------------------------------------------
  free energy    TOTEN  =       -68.09577029 eV

  energy without entropy =      -68.09009847  energy(sigma->0) =      -68.09293438


--------------------------------------------------------------------------------------------------------




--------------------------------------- Iteration      1(  12)  ---------------------------------------


    POTLOK:  cpu time    0.0155: real time    0.0157
    SETDIJ:  cpu time    0.0048: real time    0.0048
     EDDAV:  cpu time    1.6818: real time    1.6846
       DOS:  cpu time    0.0014: real time    0.0014
    CHARGE:  cpu time    0.0319: real time    0.0319
    MIXING:  cpu time    0.0005: real time    0.0005
    --------------------------------------------
      LOOP:  cpu time    1.7359: real time    1.7389

 eigenvalue-minimisations  :  4224
 total energy-change (2. order) :-0.1680516E+01  (-0.5376228E-01)
 number of electron      76.9999986 magnetization       5.3832029
 augmentation part       21.8923654 magnetization       4.0198150

 Broyden mixing:
  rms(total) = 0.31277E+00    rms(broyden)= 0.31276E+00
  rms(prec ) = 0.31384E+00
  weight for this iteration     100.00

 eigenvalues of (default mixing * dielectric matrix)
  average eigenvalue GAMMA=   1.4516
  4.8385  1.4209  1.4209  0.2183  0.8904  0.6423  0.7301

 Free energy of the ion-electron system (eV)
  ---------------------------------------------------
  alpha Z        PSCENC =       221.66583342
  Ewald energy   TEWEN  =    121628.23025617
  -Hartree energ DENC   =   -128353.40538355
  -exchange      EXHF   =         0.00000000
  -V(xc)+E(xc)   XCENC  =       291.78936897
  PAW double counting   =      5446.76766789    -5401.92115147
  entropy T*S    EENTRO =        -0.00637578
  eigenvalues    EBANDS =     -1152.27828207
  atomic energy  EATOM  =      7249.38178018
  Solvation  Ediel_sol  =         0.00000000
  ---------------------------------------------------
  free energy    TOTEN  =       -69.77628623 eV

  energy without entropy =      -69.76991045  energy(sigma->0) =      -69.77309834


--------------------------------------------------------------------------------------------------------




--------------------------------------- Iteration      1(  13)  ---------------------------------------


    POTLOK:  cpu time    0.0148: real time    0.0154
    SETDIJ:  cpu time    0.0048: real time    0.0048
     EDDAV:  cpu time    1.8486: real time    1.8526
       DOS:  cpu time    0.0014: real time    0.0014
    CHARGE:  cpu time    0.0277: real time    0.0277
    MIXING:  cpu time    0.0006: real time    0.0006
    --------------------------------------------
      LOOP:  cpu time    1.8978: real time    1.9025

 eigenvalue-minimisations  :  4560
 total energy-change (2. order) :-0.5925794E+00  (-0.2245690E-01)
 number of electron      76.9999987 magnetization       4.5875775
 augmentation part       21.9069076 magnetization       3.5110900

 Broyden mixing:
  rms(total) = 0.25578E+00    rms(broyden)= 0.25577E+00
  rms(prec ) = 0.25921E+00
  weight for this iteration     100.00

 eigenvalues of (default mixing * dielectric matrix)
  average eigenvalue GAMMA=   1.9236
  8.5029  1.7698  1.7698  0.2183  0.9439  0.8929  0.6455  0.6455

 Free energy of the ion-electron system (eV)
  ---------------------------------------------------
  alpha Z        PSCENC =       221.66583342
  Ewald energy   TEWEN  =    121628.23025617
  -Hartree energ DENC   =   -128380.02574134
  -exchange      EXHF   =         0.00000000
  -V(xc)+E(xc)   XCENC  =       291.44056885
  PAW double counting   =      5454.47801585    -5410.04300779
  entropy T*S    EENTRO =        -0.00634862
  eigenvalues    EBANDS =     -1125.49022232
  atomic energy  EATOM  =      7249.38178018
  Solvation  Ediel_sol  =         0.00000000
  ---------------------------------------------------
  free energy    TOTEN  =       -70.36886560 eV

  energy without entropy =      -70.36251698  energy(sigma->0) =      -70.36569129


--------------------------------------------------------------------------------------------------------




--------------------------------------- Iteration      1(  14)  ---------------------------------------


    POTLOK:  cpu time    0.0148: real time    0.0154
    SETDIJ:  cpu time    0.0048: real time    0.0048
     EDDAV:  cpu time    1.9121: real time    1.9149
       DOS:  cpu time    0.0014: real time    0.0014
    CHARGE:  cpu time    0.0277: real time    0.0277
    MIXING:  cpu time    0.0006: real time    0.0006
    --------------------------------------------
      LOOP:  cpu time    1.9614: real time    1.9649

 eigenvalue-minimisations  :  4656
 total energy-change (2. order) :-0.1735524E+00  (-0.2010346E-01)
 number of electron      76.9999986 magnetization       3.9179753
 augmentation part       21.8905269 magnetization       3.1362949

 Broyden mixing:
  rms(total) = 0.22297E+00    rms(broyden)= 0.22297E+00
  rms(prec ) = 0.22555E+00
  weight for this iteration     100.00

 eigenvalues of (default mixing * dielectric matrix)
  average eigenvalue GAMMA=   2.2558
 12.1164  2.4126  1.2525  1.2525  0.2183  0.9648  0.7301  0.7301  0.6247

 Free energy of the ion-electron system (eV)
  ---------------------------------------------------
  alpha Z        PSCENC =       221.66583342
  Ewald energy   TEWEN  =    121628.23025617
  -Hartree energ DENC   =   -128355.09752378
  -exchange      EXHF   =         0.00000000
  -V(xc)+E(xc)   XCENC  =       291.27361059
  PAW double counting   =      5411.18614101    -5366.11147000
  entropy T*S    EENTRO =        -0.00731316
  eigenvalues    EBANDS =     -1151.06373238
  atomic energy  EATOM  =      7249.38178018
  Solvation  Ediel_sol  =         0.00000000
  ---------------------------------------------------
  free energy    TOTEN  =       -70.54241795 eV

  energy without entropy =      -70.53510480  energy(sigma->0) =      -70.53876138


--------------------------------------------------------------------------------------------------------




--------------------------------------- Iteration      1(  15)  ---------------------------------------


    POTLOK:  cpu time    0.0148: real time    0.0154
    SETDIJ:  cpu time    0.0047: real time    0.0047
     EDDAV:  cpu time    1.4696: real time    1.4723
       DOS:  cpu time    0.0014: real time    0.0014
    CHARGE:  cpu time    0.0278: real time    0.0279
    MIXING:  cpu time    0.0007: real time    0.0007
    --------------------------------------------
      LOOP:  cpu time    1.5190: real time    1.5224

 eigenvalue-minimisations  :  3840
 total energy-change (2. order) :-0.1706850E+00  (-0.1291847E-01)
 number of electron      76.9999987 magnetization       3.1744011
 augmentation part       21.8964279 magnetization       2.6000422

 Broyden mixing:
  rms(total) = 0.20300E+00    rms(broyden)= 0.20300E+00
  rms(prec ) = 0.20465E+00
  weight for this iteration     100.00

 eigenvalues of (default mixing * dielectric matrix)
  average eigenvalue GAMMA=   2.3981
 14.3127  2.3684  1.9514  0.2183  1.1530  1.1530  0.8221  0.7250  0.6763  0.6012

 Free energy of the ion-electron system (eV)
  ---------------------------------------------------
  alpha Z        PSCENC =       221.66583342
  Ewald energy   TEWEN  =    121628.23025617
  -Hartree energ DENC   =   -128355.99829436
  -exchange      EXHF   =         0.00000000
  -V(xc)+E(xc)   XCENC  =       291.12112652
  PAW double counting   =      5388.97023647    -5343.66250808
  entropy T*S    EENTRO =        -0.00432805
  eigenvalues    EBANDS =     -1150.41720524
  atomic energy  EATOM  =      7249.38178018
  Solvation  Ediel_sol  =         0.00000000
  ---------------------------------------------------
  free energy    TOTEN  =       -70.71310297 eV

  energy without entropy =      -70.70877492  energy(sigma->0) =      -70.71093894


--------------------------------------------------------------------------------------------------------




--------------------------------------- Iteration      1(  16)  ---------------------------------------


    POTLOK:  cpu time    0.0147: real time    0.0154
    SETDIJ:  cpu time    0.0048: real time    0.0048
     EDDAV:  cpu time    1.7427: real time    1.7467
       DOS:  cpu time    0.0013: real time    0.0013
    CHARGE:  cpu time    0.0277: real time    0.0277
    MIXING:  cpu time    0.0012: real time    0.0064
    --------------------------------------------
      LOOP:  cpu time    1.7925: real time    1.8023

 eigenvalue-minimisations  :  4320
 total energy-change (2. order) :-0.1339258E+00  (-0.8604267E-02)
 number of electron      76.9999986 magnetization       2.4647445
 augmentation part       21.8978018 magnetization       2.0342886

 Broyden mixing:
  rms(total) = 0.17444E+00    rms(broyden)= 0.17443E+00
  rms(prec ) = 0.17524E+00
  weight for this iteration     100.00

 eigenvalues of (default mixing * dielectric matrix)
  average eigenvalue GAMMA=   2.4275
 15.4721  2.4663  2.4663  0.2183  1.2006  1.2006  0.9120  0.7626  0.7626  0.6343
  0.6066

 Free energy of the ion-electron system (eV)
  ---------------------------------------------------
  alpha Z        PSCENC =       221.66583342
  Ewald energy   TEWEN  =    121628.23025617
  -Hartree energ DENC   =   -128342.42419531
  -exchange      EXHF   =         0.00000000
  -V(xc)+E(xc)   XCENC  =       290.91472343
  PAW double counting   =      5386.38459358    -5341.35800888
  entropy T*S    EENTRO =        -0.00491338
  eigenvalues    EBANDS =     -1163.63709802
  atomic energy  EATOM  =      7249.38178018
  Solvation  Ediel_sol  =         0.00000000
  ---------------------------------------------------
  free energy    TOTEN  =       -70.84702881 eV

  energy without entropy =      -70.84211542  energy(sigma->0) =      -70.84457212


--------------------------------------------------------------------------------------------------------




--------------------------------------- Iteration      1(  17)  ---------------------------------------


    POTLOK:  cpu time    0.0152: real time    0.0153
    SETDIJ:  cpu time    0.0047: real time    0.0047
     EDDAV:  cpu time    1.6427: real time    1.6463
       DOS:  cpu time    0.0013: real time    0.0013
    CHARGE:  cpu time    0.0277: real time    0.0278
    MIXING:  cpu time    0.0009: real time    0.0009
    --------------------------------------------
      LOOP:  cpu time    1.6925: real time    1.6963

 eigenvalue-minimisations  :  4032
 total energy-change (2. order) :-0.1124507E+00  (-0.4121196E-02)
 number of electron      76.9999986 magnetization       1.4770853
 augmentation part       21.8867202 magnetization       1.1283839

 Broyden mixing:
  rms(total) = 0.14403E+00    rms(broyden)= 0.14402E+00
  rms(prec ) = 0.14670E+00
  weight for this iteration     100.00

 eigenvalues of (default mixing * dielectric matrix)
  average eigenvalue GAMMA=   2.6564
 17.3209  4.4062  2.1824  1.8787  0.2183  1.1640  1.1640  0.7857  0.7480  0.7480
  0.6304  0.6304

 Free energy of the ion-electron system (eV)
  ---------------------------------------------------
  alpha Z        PSCENC =       221.66583342
  Ewald energy   TEWEN  =    121628.23025617
  -Hartree energ DENC   =   -128327.33368714
  -exchange      EXHF   =         0.00000000
  -V(xc)+E(xc)   XCENC  =       290.79905652
  PAW double counting   =      5378.22475500    -5333.05344279
  entropy T*S    EENTRO =        -0.00567007
  eigenvalues    EBANDS =     -1178.86836075
  atomic energy  EATOM  =      7249.38178018
  Solvation  Ediel_sol  =         0.00000000
  ---------------------------------------------------
  free energy    TOTEN  =       -70.95947946 eV

  energy without entropy =      -70.95380939  energy(sigma->0) =      -70.95664443


--------------------------------------------------------------------------------------------------------




--------------------------------------- Iteration      1(  18)  ---------------------------------------


    POTLOK:  cpu time    0.0148: real time    0.0152
    SETDIJ:  cpu time    0.0048: real time    0.0048
     EDDAV:  cpu time    1.7708: real time    1.7738
       DOS:  cpu time    0.0012: real time    0.0012
    CHARGE:  cpu time    0.0281: real time    0.0281
    MIXING:  cpu time    0.0009: real time    0.0009
    --------------------------------------------
      LOOP:  cpu time    1.8205: real time    1.8239

 eigenvalue-minimisations  :  4368
 total energy-change (2. order) :-0.1395005E+00  (-0.1064428E-01)
 number of electron      76.9999986 magnetization       0.8360845
 augmentation part       21.8833717 magnetization       0.5458862

 Broyden mixing:
  rms(total) = 0.90864E-01    rms(broyden)= 0.90859E-01
  rms(prec ) = 0.95365E-01
  weight for this iteration     100.00

 eigenvalues of (default mixing * dielectric matrix)
  average eigenvalue GAMMA=   2.9971
 20.2198  7.2162  2.1799  2.1799  0.2183  1.1925  1.1925  0.9087  0.9087  0.7520
  0.7217  0.6146  0.6572

 Free energy of the ion-electron system (eV)
  ---------------------------------------------------
  alpha Z        PSCENC =       221.66583342
  Ewald energy   TEWEN  =    121628.23025617
  -Hartree energ DENC   =   -128301.35356363
  -exchange      EXHF   =         0.00000000
  -V(xc)+E(xc)   XCENC  =       290.65213018
  PAW double counting   =      5374.01848144    -5328.66349910
  entropy T*S    EENTRO =        -0.00661488
  eigenvalues    EBANDS =     -1205.02378371
  atomic energy  EATOM  =      7249.38178018
  Solvation  Ediel_sol  =         0.00000000
  ---------------------------------------------------
  free energy    TOTEN  =       -71.09897993 eV

  energy without entropy =      -71.09236505  energy(sigma->0) =      -71.09567249


--------------------------------------------------------------------------------------------------------




--------------------------------------- Iteration      1(  19)  ---------------------------------------


    POTLOK:  cpu time    0.0149: real time    0.0153
    SETDIJ:  cpu time    0.0047: real time    0.0047
     EDDAV:  cpu time    1.5411: real time    1.5441
       DOS:  cpu time    0.0013: real time    0.0013
    CHARGE:  cpu time    0.0282: real time    0.0282
    MIXING:  cpu time    0.0009: real time    0.0009
    --------------------------------------------
      LOOP:  cpu time    1.5911: real time    1.5945

 eigenvalue-minimisations  :  3936
 total energy-change (2. order) :-0.4845644E+00  (-0.7050595E-02)
 number of electron      76.9999986 magnetization       0.5125329
 augmentation part       21.8987256 magnetization       0.2624353

 Broyden mixing:
  rms(total) = 0.52941E-01    rms(broyden)= 0.52920E-01
  rms(prec ) = 0.55002E-01
  weight for this iteration     100.00

 eigenvalues of (default mixing * dielectric matrix)
  average eigenvalue GAMMA=   3.3890
 25.2153  9.4949  2.3094  2.0265  1.5279  0.2183  1.1505  1.1505  0.8173  0.8173
  0.7341  0.7341  0.6428  0.6069

 Free energy of the ion-electron system (eV)
  ---------------------------------------------------
  alpha Z        PSCENC =       221.66583342
  Ewald energy   TEWEN  =    121628.23025617
  -Hartree energ DENC   =   -128294.67077901
  -exchange      EXHF   =         0.00000000
  -V(xc)+E(xc)   XCENC  =       290.13431373
  PAW double counting   =      5389.33670871    -5344.20732058
  entropy T*S    EENTRO =        -0.00757628
  eigenvalues    EBANDS =     -1211.44676064
  atomic energy  EATOM  =      7249.38178018
  Solvation  Ediel_sol  =         0.00000000
  ---------------------------------------------------
  free energy    TOTEN  =       -71.58354430 eV

  energy without entropy =      -71.57596802  energy(sigma->0) =      -71.57975616


--------------------------------------------------------------------------------------------------------




--------------------------------------- Iteration      1(  20)  ---------------------------------------


    POTLOK:  cpu time    0.0151: real time    0.0153
    SETDIJ:  cpu time    0.0047: real time    0.0047
     EDDAV:  cpu time    1.5121: real time    1.5148
       DOS:  cpu time    0.0013: real time    0.0013
    CHARGE:  cpu time    0.0278: real time    0.0278
    MIXING:  cpu time    0.0010: real time    0.0011
    --------------------------------------------
      LOOP:  cpu time    1.5620: real time    1.5651

 eigenvalue-minimisations  :  3936
 total energy-change (2. order) :-0.1633651E+00  (-0.1449462E-02)
 number of electron      76.9999986 magnetization       0.3611447
 augmentation part       21.9002432 magnetization       0.1523665

 Broyden mixing:
  rms(total) = 0.32835E-01    rms(broyden)= 0.32827E-01
  rms(prec ) = 0.33877E-01
  weight for this iteration     100.00

 eigenvalues of (default mixing * dielectric matrix)
  average eigenvalue GAMMA=   3.6415
 29.7332 10.5262  2.6165  2.2075  1.5633  0.2183  1.2406  1.2406  0.9341  0.9341
  0.7505  0.7505  0.6720  0.6174  0.6174

 Free energy of the ion-electron system (eV)
  ---------------------------------------------------
  alpha Z        PSCENC =       221.66583342
  Ewald energy   TEWEN  =    121628.23025617
  -Hartree energ DENC   =   -128295.50393926
  -exchange      EXHF   =         0.00000000
  -V(xc)+E(xc)   XCENC  =       289.98008023
  PAW double counting   =      5395.59575062    -5350.53184966
  entropy T*S    EENTRO =        -0.00773535
  eigenvalues    EBANDS =     -1210.55708574
  atomic energy  EATOM  =      7249.38178018
  Solvation  Ediel_sol  =         0.00000000
  ---------------------------------------------------
  free energy    TOTEN  =       -71.74690940 eV

  energy without entropy =      -71.73917405  energy(sigma->0) =      -71.74304172


--------------------------------------------------------------------------------------------------------




--------------------------------------- Iteration      1(  21)  ---------------------------------------


    POTLOK:  cpu time    0.0166: real time    0.0168
    SETDIJ:  cpu time    0.0047: real time    0.0047
     EDDAV:  cpu time    1.5365: real time    1.5391
       DOS:  cpu time    0.0013: real time    0.0013
    CHARGE:  cpu time    0.0321: real time    0.0321
    MIXING:  cpu time    0.0011: real time    0.0012
    --------------------------------------------
      LOOP:  cpu time    1.5923: real time    1.5951

 eigenvalue-minimisations  :  3888
 total energy-change (2. order) : 0.8922152E-01  (-0.8689116E-03)
 number of electron      76.9999986 magnetization       0.2784085
 augmentation part       21.8977530 magnetization       0.1022290

 Broyden mixing:
  rms(total) = 0.24119E-01    rms(broyden)= 0.24111E-01
  rms(prec ) = 0.25504E-01
  weight for this iteration     100.00

 eigenvalues of (default mixing * dielectric matrix)
  average eigenvalue GAMMA=   3.6512
 31.8098 10.7550  2.7927  2.3142  1.8611  0.2183  1.2036  1.2036  1.1091  0.8466
  0.8466  0.8580  0.6903  0.6903  0.6206  0.5991

 Free energy of the ion-electron system (eV)
  ---------------------------------------------------
  alpha Z        PSCENC =       221.66583342
  Ewald energy   TEWEN  =    121628.23025617
  -Hartree energ DENC   =   -128302.07673389
  -exchange      EXHF   =         0.00000000
  -V(xc)+E(xc)   XCENC  =       290.10590018
  PAW double counting   =      5398.02855890    -5352.94516624
  entropy T*S    EENTRO =        -0.00789552
  eigenvalues    EBANDS =     -1204.04022108
  atomic energy  EATOM  =      7249.38178018
  Solvation  Ediel_sol  =         0.00000000
  ---------------------------------------------------
  free energy    TOTEN  =       -71.65768788 eV

  energy without entropy =      -71.64979236  energy(sigma->0) =      -71.65374012


--------------------------------------------------------------------------------------------------------




--------------------------------------- Iteration      1(  22)  ---------------------------------------


    POTLOK:  cpu time    0.0151: real time    0.0153
    SETDIJ:  cpu time    0.0048: real time    0.0048
     EDDAV:  cpu time    1.7159: real time    1.7186
       DOS:  cpu time    0.0012: real time    0.0012
    CHARGE:  cpu time    0.0285: real time    0.0285
    MIXING:  cpu time    0.0011: real time    0.0011
    --------------------------------------------
      LOOP:  cpu time    1.7665: real time    1.7693

 eigenvalue-minimisations  :  4272
 total energy-change (2. order) :-0.4162588E-01  (-0.5892933E-03)
 number of electron      76.9999986 magnetization       0.1952780
 augmentation part       21.8947673 magnetization       0.0481874

 Broyden mixing:
  rms(total) = 0.17052E-01    rms(broyden)= 0.17046E-01
  rms(prec ) = 0.17799E-01
  weight for this iteration     100.00

 eigenvalues of (default mixing * dielectric matrix)
  average eigenvalue GAMMA=   3.6317
 32.9800 10.7794  3.4070  2.5002  1.7545  1.7545  0.2183  1.1516  1.1516  0.9687
  0.9687  0.7550  0.7550  0.7322  0.6518  0.6178  0.5921

 Free energy of the ion-electron system (eV)
  ---------------------------------------------------
  alpha Z        PSCENC =       221.66583342
  Ewald energy   TEWEN  =    121628.23025617
  -Hartree energ DENC   =   -128306.51502094
  -exchange      EXHF   =         0.00000000
  -V(xc)+E(xc)   XCENC  =       290.08786568
  PAW double counting   =      5394.16357157    -5349.02081267
  entropy T*S    EENTRO =        -0.00832823
  eigenvalues    EBANDS =     -1199.68445894
  atomic energy  EATOM  =      7249.38178018
  Solvation  Ediel_sol  =         0.00000000
  ---------------------------------------------------
  free energy    TOTEN  =       -71.69931376 eV

  energy without entropy =      -71.69098554  energy(sigma->0) =      -71.69514965


--------------------------------------------------------------------------------------------------------




--------------------------------------- Iteration      1(  23)  ---------------------------------------


    POTLOK:  cpu time    0.0151: real time    0.0152
    SETDIJ:  cpu time    0.0048: real time    0.0048
     EDDAV:  cpu time    1.3760: real time    1.3790
       DOS:  cpu time    0.0012: real time    0.0012
    CHARGE:  cpu time    0.0278: real time    0.0278
    MIXING:  cpu time    0.0011: real time    0.0011
    --------------------------------------------
      LOOP:  cpu time    1.4259: real time    1.4291

 eigenvalue-minimisations  :  3648
 total energy-change (2. order) :-0.1392298E+00  (-0.3178904E-03)
 number of electron      76.9999986 magnetization       0.1347359
 augmentation part       21.8948630 magnetization       0.0221598

 Broyden mixing:
  rms(total) = 0.10341E-01    rms(broyden)= 0.10332E-01
  rms(prec ) = 0.10727E-01
  weight for this iteration     100.00

 eigenvalues of (default mixing * dielectric matrix)
  average eigenvalue GAMMA=   3.6596
 34.1149 10.6703  5.0979  2.4458  2.1710  1.6303  0.2183  1.4006  1.0904  1.0904
  0.9505  0.9505  0.7518  0.7518  0.6654  0.6654  0.6206  0.5862

 Free energy of the ion-electron system (eV)
  ---------------------------------------------------
  alpha Z        PSCENC =       221.66583342
  Ewald energy   TEWEN  =    121628.23025617
  -Hartree energ DENC   =   -128314.44810243
  -exchange      EXHF   =         0.00000000
  -V(xc)+E(xc)   XCENC  =       289.96769215
  PAW double counting   =      5392.66781523    -5347.53207069
  entropy T*S    EENTRO =        -0.00828577
  eigenvalues    EBANDS =     -1191.76346187
  atomic energy  EATOM  =      7249.38178018
  Solvation  Ediel_sol  =         0.00000000
  ---------------------------------------------------
  free energy    TOTEN  =       -71.83854361 eV

  energy without entropy =      -71.83025784  energy(sigma->0) =      -71.83440072


--------------------------------------------------------------------------------------------------------




--------------------------------------- Iteration      1(  24)  ---------------------------------------


    POTLOK:  cpu time    0.0151: real time    0.0153
    SETDIJ:  cpu time    0.0048: real time    0.0048
     EDDAV:  cpu time    1.6791: real time    1.6818
       DOS:  cpu time    0.0012: real time    0.0012
    CHARGE:  cpu time    0.0277: real time    0.0277
    MIXING:  cpu time    0.0011: real time    0.0011
    --------------------------------------------
      LOOP:  cpu time    1.7289: real time    1.7319

 eigenvalue-minimisations  :  4224
 total energy-change (2. order) :-0.9608588E-01  (-0.1270038E-03)
 number of electron      76.9999986 magnetization       0.1009128
 augmentation part       21.8945478 magnetization       0.0177871

 Broyden mixing:
  rms(total) = 0.68044E-02    rms(broyden)= 0.67899E-02
  rms(prec ) = 0.70379E-02
  weight for this iteration     100.00

 eigenvalues of (default mixing * dielectric matrix)
  average eigenvalue GAMMA=   3.6638
 35.0065 10.3080  6.9216  2.5509  2.3238  1.6157  1.5773  0.2183  1.1672  1.1672
  0.9946  0.9946  0.7901  0.7901  0.6843  0.6843  0.6274  0.6150  0.5749

 Free energy of the ion-electron system (eV)
  ---------------------------------------------------
  alpha Z        PSCENC =       221.66583342
  Ewald energy   TEWEN  =    121628.23025617
  -Hartree energ DENC   =   -128318.23877955
  -exchange      EXHF   =         0.00000000
  -V(xc)+E(xc)   XCENC  =       289.87859101
  PAW double counting   =      5391.91158381    -5346.78803024
  entropy T*S    EENTRO =        -0.00853452
  eigenvalues    EBANDS =     -1187.96732977
  atomic energy  EATOM  =      7249.38178018
  Solvation  Ediel_sol  =         0.00000000
  ---------------------------------------------------
  free energy    TOTEN  =       -71.93462949 eV

  energy without entropy =      -71.92609497  energy(sigma->0) =      -71.93036223


--------------------------------------------------------------------------------------------------------




--------------------------------------- Iteration      1(  25)  ---------------------------------------


    POTLOK:  cpu time    0.0149: real time    0.0154
    SETDIJ:  cpu time    0.0047: real time    0.0047
     EDDAV:  cpu time    1.6741: real time    1.6783
       DOS:  cpu time    0.0012: real time    0.0012
    CHARGE:  cpu time    0.0277: real time    0.0277
    MIXING:  cpu time    0.0012: real time    0.0012
    --------------------------------------------
      LOOP:  cpu time    1.7237: real time    1.7285

 eigenvalue-minimisations  :  4224
 total energy-change (2. order) :-0.3085558E-01  (-0.3091551E-04)
 number of electron      76.9999986 magnetization       0.0764501
 augmentation part       21.8943430 magnetization       0.0115203

 Broyden mixing:
  rms(total) = 0.41065E-02    rms(broyden)= 0.40925E-02
  rms(prec ) = 0.43000E-02
  weight for this iteration     100.00

 eigenvalues of (default mixing * dielectric matrix)
  average eigenvalue GAMMA=   3.6621
 35.6419  9.2616  8.8839  2.9328  2.5578  1.8304  1.8304  0.2183  1.2396  1.2396
  0.9607  0.9607  0.9386  0.7597  0.7597  0.7213  0.6723  0.6316  0.6176  0.5834

 Free energy of the ion-electron system (eV)
  ---------------------------------------------------
  alpha Z        PSCENC =       221.66583342
  Ewald energy   TEWEN  =    121628.23025617
  -Hartree energ DENC   =   -128318.73131408
  -exchange      EXHF   =         0.00000000
  -V(xc)+E(xc)   XCENC  =       289.84325173
  PAW double counting   =      5391.61723199    -5346.49608058
  entropy T*S    EENTRO =        -0.00856944
  eigenvalues    EBANDS =     -1187.46787445
  atomic energy  EATOM  =      7249.38178018
  Solvation  Ediel_sol  =         0.00000000
  ---------------------------------------------------
  free energy    TOTEN  =       -71.96548506 eV

  energy without entropy =      -71.95691562  energy(sigma->0) =      -71.96120034


--------------------------------------------------------------------------------------------------------




--------------------------------------- Iteration      1(  26)  ---------------------------------------


    POTLOK:  cpu time    0.0149: real time    0.0153
    SETDIJ:  cpu time    0.0048: real time    0.0048
     EDDAV:  cpu time    1.6563: real time    1.6602
       DOS:  cpu time    0.0012: real time    0.0012
    CHARGE:  cpu time    0.0281: real time    0.0281
    MIXING:  cpu time    0.0012: real time    0.0012
    --------------------------------------------
      LOOP:  cpu time    1.7066: real time    1.7108

 eigenvalue-minimisations  :  4176
 total energy-change (2. order) :-0.9705373E-02  (-0.3604150E-04)
 number of electron      76.9999986 magnetization       0.0591124
 augmentation part       21.8949777 magnetization       0.0096988

 Broyden mixing:
[...]
     25      -7.5241      1.00000
     26      -7.3900      1.00000
     27      -7.1437      1.00000
     28      -6.9867      1.00000
     29      -6.7870      1.00000
     30      -6.6714      1.00000
     31      -6.6578      1.00000
     32      -6.4315      1.00000
     33      -4.0533      1.00000
     34      -3.6054      1.00000
     35      -2.9843      1.00000
     36      -2.7771      1.00000
     37      -0.2422      0.00000
     38      -0.1067      0.00000
     39       0.0289      0.00000
     40       0.1138      0.00000
     41       0.1441      0.00000
     42       0.6087      0.00000
     43       0.6712      0.00000
     44       0.8273      0.00000
     45       1.3851      0.00000
     46       1.5245      0.00000
     47       1.6598      0.00000
     48       2.2163      0.00000
     49       2.5754      0.00000
     50       3.1407      0.00000
     51       3.5533      0.00000
     52       4.3781      0.00000
     53       6.4316      0.00000
     54       7.4736      0.00000
     55       8.5989      0.00000
     56       9.2689      0.00000
     57       9.9334      0.00000
     58      10.3238      0.00000
     59      10.4925      0.00000
     60      10.5404      0.00000
     61      10.8920      0.00000
     62      11.1213      0.00000
     63      11.3469      0.00000
     64      11.4319      0.00000
     65      11.4536      0.00000
     66      11.6187      0.00000
     67      11.6666      0.00000
     68      11.8939      0.00000
     69      11.9563      0.00000
     70      12.1135      0.00000
     71      12.1841      0.00000
     72      12.4956      0.00000
     73      12.5183      0.00000
     74      13.0007      0.00000
     75      13.0380      0.00000
     76      13.2878      0.00000
     77      13.4877      0.00000
     78      13.6508      0.00000
     79      13.8833      0.00000
     80      14.0507      0.00000
     81      14.3239      0.00000
     82      14.3503      0.00000
     83      14.6748      0.00000
     84      14.8322      0.00000
     85      14.8323      0.00000
     86      14.8614      0.00000
     87      15.0516      0.00000
     88      15.0520      0.00000
     89      15.2293      0.00000
     90      15.2534      0.00000
     91      15.7210      0.00000
     92      15.9775      0.00000
     93      16.1997      0.00000
     94      16.2441      0.00000
     95      16.6299      0.00000
     96      16.8919      0.00000

 k-point     8 :       0.2857    0.2857    0.0000
  band No.  band energies     occupation 
      1     -37.7694      1.00000
      2     -37.7469      1.00000
      3     -37.5958      1.00000
      4     -37.5939      1.00000
      5     -37.4868      1.00000
      6     -37.4644      1.00000
      7     -37.3796      1.00000
      8     -37.3555      1.00000
      9     -37.2988      1.00000
     10     -37.2942      1.00000
     11     -37.2524      1.00000
     12     -37.2493      1.00000
     13     -25.5336      1.00000
     14     -25.5335      1.00000
     15     -16.6942      1.00000
     16     -16.5840      1.00000
     17     -16.4063      1.00000
     18      -8.8850      1.00000
     19      -8.6837      1.00000
     20      -8.4214      1.00000
     21      -8.3046      1.00000
     22      -8.1210      1.00000
     23      -7.9233      1.00000
     24      -7.8911      1.00000
     25      -7.8726      1.00000
     26      -7.6542      1.00000
     27      -7.6071      1.00000
     28      -7.2700      1.00000
     29      -7.1595      1.00000
     30      -7.0639      1.00000
     31      -6.9653      1.00000
     32      -6.8915      1.00000
     33      -2.5022      1.00000
     34      -2.4101      1.00000
     35      -2.2079      1.00000
     36      -1.6585      1.00000
     37      -1.6499      1.00000
     38      -1.4285      1.00000
     39      -1.3704      1.00000
     40      -1.1905      0.16091
     41      -0.0692      0.00000
     42       0.4287      0.00000
     43       0.5538      0.00000
     44       0.8592      0.00000
     45       1.1529      0.00000
     46       1.6623      0.00000
     47       1.7882      0.00000
     48       1.9919      0.00000
     49       2.0897      0.00000
     50       3.3870      0.00000
     51       3.7353      0.00000
     52       4.3920      0.00000
     53       8.8539      0.00000
     54       9.1207      0.00000
     55       9.1764      0.00000
     56       9.4646      0.00000
     57      10.3753      0.00000
     58      10.3922      0.00000
     59      10.9151      0.00000
     60      11.1173      0.00000
     61      11.2397      0.00000
     62      11.3975      0.00000
     63      11.4598      0.00000
     64      11.6865      0.00000
     65      11.7699      0.00000
     66      11.9284      0.00000
     67      12.3360      0.00000
     68      12.4330      0.00000
     69      12.5465      0.00000
     70      12.7896      0.00000
     71      13.0280      0.00000
     72      13.0312      0.00000
     73      13.4503      0.00000
     74      13.5770      0.00000
     75      13.7522      0.00000
     76      13.9846      0.00000
     77      14.2152      0.00000
     78      14.3353      0.00000
     79      14.4434      0.00000
     80      14.4983      0.00000
     81      14.5310      0.00000
     82      14.6055      0.00000
     83      14.7425      0.00000
     84      14.7783      0.00000
     85      14.8322      0.00000
     86      14.8323      0.00000
     87      14.9476      0.00000
     88      15.0518      0.00000
     89      15.0523      0.00000
     90      15.1273      0.00000
     91      15.2385      0.00000
     92      15.3209      0.00000
     93      15.4391      0.00000
     94      15.7112      0.00000
     95      15.9269      0.00000
     96      16.0458      0.00000


--------------------------------------------------------------------------------------------------------


 soft charge-density along one line, spin component           1
         0         1         2         3         4         5         6         7         8         9
 total charge-density along one line
 
 soft charge-density along one line, spin component           2
         0         1         2         3         4         5         6         7         8         9
 total charge-density along one line
 
 pseudopotential strength for first ion, spin component:           1
-33.231  -0.000  -0.000  18.217   0.000   0.000   0.000   0.013
 -0.000 -33.334  -0.000   0.000  18.305   0.000   0.000   0.000
 -0.000  -0.000 -33.231   0.000   0.000  18.217  -0.000   0.000
 18.217   0.000   0.000  -4.125  -0.000  -0.000  -0.000  -0.003
  0.000  18.305   0.000  -0.000  -4.187  -0.000  -0.000  -0.000
  0.000   0.000  18.217  -0.000  -0.000  -4.125   0.001  -0.000
  0.000   0.000  -0.000  -0.000  -0.000   0.001  -7.692  -0.000
  0.013   0.000   0.000  -0.003  -0.000  -0.000  -0.000  -7.739
  0.000   0.008   0.000  -0.000   0.002  -0.000   0.000   0.000
  0.000   0.000   0.013  -0.000  -0.000  -0.003   0.011  -0.000
 -0.000  -0.000  -0.000   0.001   0.000   0.000   0.000   0.011
 -0.000  -0.000  -0.000   0.000   0.000   0.000   0.063   0.000
 -0.000   0.000  -0.000  -0.000  -0.000   0.000   0.000   0.067
 -0.000   0.000  -0.000   0.000  -0.001   0.000  -0.000  -0.000
 -0.000  -0.000  -0.000   0.000   0.000  -0.000  -0.001   0.000
 -0.000   0.000   0.000   0.000  -0.000  -0.000  -0.000  -0.001
  0.000   0.011   0.000  -0.000  -0.011  -0.000   0.000   0.000
 -0.000   0.001  -0.000   0.000   0.000   0.000  -0.000  -0.000
 pseudopotential strength for first ion, spin component:           2
-33.231  -0.000  -0.000  18.217   0.000   0.000   0.000   0.013
 -0.000 -33.334  -0.000   0.000  18.305   0.000   0.000   0.000
 -0.000  -0.000 -33.231   0.000   0.000  18.217  -0.000   0.000
 18.217   0.000   0.000  -4.125  -0.000  -0.000  -0.000  -0.003
  0.000  18.305   0.000  -0.000  -4.187  -0.000  -0.000  -0.000
  0.000   0.000  18.217  -0.000  -0.000  -4.125   0.001  -0.000
  0.000   0.000  -0.000  -0.000  -0.000   0.001  -7.692  -0.000
  0.013   0.000   0.000  -0.003  -0.000  -0.000  -0.000  -7.739
  0.000   0.008   0.000  -0.000   0.002  -0.000   0.000   0.000
  0.000   0.000   0.013  -0.000  -0.000  -0.003   0.011  -0.000
 -0.000  -0.000  -0.000   0.001   0.000   0.000   0.000   0.011
 -0.000  -0.000  -0.000   0.000   0.000   0.000   0.063   0.000
 -0.000   0.000  -0.000  -0.000  -0.000   0.000   0.000   0.067
 -0.000   0.000  -0.000   0.000  -0.001   0.000  -0.000  -0.000
 -0.000  -0.000  -0.000   0.000   0.000  -0.000  -0.001   0.000
 -0.000   0.000   0.000   0.000  -0.000  -0.000  -0.000  -0.001
  0.000   0.011   0.000  -0.000  -0.011  -0.000   0.000   0.000
 -0.000   0.001  -0.000   0.000   0.000   0.000  -0.000  -0.000
 total augmentation occupancy for first ion, spin component:           1
  2.004  -0.000  -0.000   0.056  -0.000   0.000   0.000   0.017  -0.000   0.000  -0.005   0.000   0.062  -0.000  -0.000  -0.025
 -0.000   1.995   0.000  -0.000   0.040   0.000   0.000  -0.000   0.019   0.000   0.000   0.000  -0.000   0.031   0.000   0.000
 -0.000   0.000   2.004  -0.000   0.000   0.056  -0.005   0.000  -0.000   0.017   0.000  -0.025  -0.000  -0.000   0.062   0.000
  0.056  -0.000   0.000   0.271  -0.000  -0.000   0.000   0.075  -0.000  -0.000  -0.024   0.000   0.148  -0.000  -0.000  -0.072
 -0.000   0.040   0.000  -0.000   0.252   0.000   0.000  -0.000   0.066   0.000   0.000   0.000  -0.000   0.041  -0.000   0.000
 -0.000   0.000   0.056  -0.000   0.000   0.271  -0.024  -0.000  -0.000   0.075   0.000  -0.072  -0.000  -0.000   0.148   0.000
  0.000   0.000  -0.005   0.000   0.000  -0.024   1.107   0.000  -0.000   0.208   0.000   0.647   0.000   0.000  -0.193  -0.000
  0.017  -0.000  -0.000   0.075  -0.000  -0.000   0.000   0.733   0.000  -0.000   0.208   0.000   0.751  -0.000  -0.000  -0.191
 -0.000   0.019  -0.000  -0.000   0.066  -0.000   0.000   0.000   1.146   0.000   0.000   0.000  -0.000   0.486  -0.000   0.000
 -0.000   0.000   0.017   0.000   0.000   0.075   0.208  -0.000   0.000   0.733   0.000  -0.191  -0.000  -0.000   0.751   0.000
 -0.005   0.000   0.000  -0.024   0.000   0.000   0.000   0.208   0.000  -0.000   1.107  -0.000  -0.193   0.000   0.000   0.647
  0.000   0.000  -0.025   0.000   0.000  -0.072   0.647   0.000   0.000  -0.191  -0.000   1.060   0.000   0.000  -0.531  -0.000
  0.062  -0.000  -0.000   0.148  -0.000  -0.000   0.000   0.751  -0.000  -0.000  -0.193   0.000   1.469  -0.000  -0.000  -0.531
 -0.000   0.031  -0.000  -0.000   0.041  -0.000   0.000  -0.000   0.486  -0.000   0.000   0.000  -0.000   0.697  -0.000   0.000
 -0.000   0.000   0.062   0.000  -0.000   0.148  -0.193  -0.000  -0.000   0.751   0.000  -0.531  -0.000  -0.000   1.469   0.000
 -0.025   0.000   0.000  -0.072   0.000   0.000  -0.000  -0.191   0.000   0.000   0.647  -0.000  -0.531   0.000   0.000   1.060
 -0.000   0.030   0.000   0.000   0.130   0.000   0.000  -0.000  -0.221  -0.000  -0.000   0.000  -0.000  -0.031  -0.000  -0.000
  0.000  -0.028  -0.000   0.000  -0.011  -0.000   0.000   0.000   0.055   0.000   0.000  -0.000   0.000   0.007   0.000   0.000
 total augmentation occupancy for first ion, spin component:           2
  0.000  -0.000  -0.000   0.000  -0.000  -0.000  -0.000  -0.000  -0.000  -0.000  -0.000  -0.000  -0.000  -0.000   0.000  -0.000
 -0.000   0.000   0.000  -0.000   0.000   0.000   0.000   0.000  -0.000   0.000  -0.000   0.000   0.000   0.000   0.000   0.000
 -0.000   0.000   0.000  -0.000   0.000   0.000  -0.000   0.000   0.000  -0.000  -0.000  -0.000   0.000   0.000  -0.000  -0.000
  0.000  -0.000  -0.000   0.000  -0.000  -0.000  -0.000  -0.000  -0.000  -0.000  -0.000  -0.000  -0.000  -0.000   0.000  -0.000
 -0.000   0.000   0.000  -0.000   0.000  -0.000  -0.000   0.000  -0.000   0.000  -0.000   0.000   0.000   0.000   0.000   0.000
 -0.000   0.000   0.000  -0.000   0.000   0.000  -0.000   0.000   0.000  -0.000  -0.000  -0.000   0.000   0.000  -0.000  -0.000
 -0.000   0.000  -0.000  -0.000   0.000  -0.000   0.000   0.000  -0.000   0.000   0.000  -0.000  -0.000   0.000  -0.000  -0.000
 -0.000   0.000   0.000  -0.000   0.000   0.000   0.000   0.000   0.000  -0.000   0.000  -0.000  -0.000  -0.000   0.000  -0.000
 -0.000  -0.000   0.000  -0.000  -0.000   0.000  -0.000   0.000   0.000   0.000   0.000   0.000  -0.000  -0.000  -0.000  -0.000
  0.000   0.000  -0.000   0.000   0.000  -0.000   0.000  -0.000   0.000   0.000  -0.000  -0.000   0.000  -0.000  -0.000  -0.000
 -0.000  -0.000  -0.000  -0.000  -0.000  -0.000   0.000   0.000   0.000  -0.000   0.000  -0.000  -0.000  -0.000   0.000  -0.000
 -0.000   0.000  -0.000  -0.000   0.000  -0.000  -0.000  -0.000   0.000  -0.000  -0.000   0.000  -0.000  -0.000   0.000   0.000
 -0.000   0.000   0.000  -0.000   0.000   0.000  -0.000  -0.000  -0.000   0.000  -0.000  -0.000  -0.000   0.000  -0.000   0.000
 -0.000   0.000   0.000  -0.000   0.000   0.000   0.000  -0.000  -0.000  -0.000  -0.000  -0.000   0.000   0.000   0.000   0.000
  0.000   0.000  -0.000   0.000   0.000  -0.000  -0.000   0.000  -0.000  -0.000   0.000   0.000  -0.000   0.000  -0.000  -0.000
 -0.000   0.000  -0.000  -0.000   0.000   0.000  -0.000  -0.000  -0.000   0.000  -0.000   0.000   0.000   0.000  -0.000   0.000
 -0.000   0.000   0.000   0.000   0.000   0.000   0.000  -0.000  -0.000  -0.000  -0.000   0.000   0.000   0.000   0.000   0.000
 -0.000   0.000   0.000   0.000  -0.000  -0.000   0.000  -0.000  -0.000  -0.000  -0.000   0.000  -0.000  -0.000  -0.000  -0.000


------------------------ aborting loop because EDIFF is reached ----------------------------------------


    CHARGE:  cpu time    0.0276: real time    0.0276
    FORLOC:  cpu time    0.0006: real time    0.0006
    FORNL :  cpu time    0.1525: real time    0.1525
    STRESS:  cpu time    0.4532: real time    0.4532
    FORCOR:  cpu time    0.0128: real time    0.0128
    FORHAR:  cpu time    0.0016: real time    0.0016
    MIXING:  cpu time    0.0005: real time    0.0005
    OFIELD:  cpu time    0.0000: real time    0.0000

  FORCE on cell =-STRESS in cart. coord.  units (eV):
  Direction    XX          YY          ZZ          XY          YZ          ZX
  --------------------------------------------------------------------------------------
  Alpha Z   221.66583   221.66583   221.66583
  Ewald  117269.22492117269.22492************     0.00000    -0.00000    -0.00000
  Hartree118640.62367118640.62367************    -0.00000    -0.00000    -0.00000
  E(xc)    -364.42368  -364.42367  -364.07255     0.00007     0.00001    -0.00001
  Local  ************************238602.28606    -0.00317    -0.00091    -0.00053
  n-local  -228.45577  -230.61187  -231.30066    -8.90845    -2.55491   -15.26292
  augment   243.81930   243.82014   242.01312     0.00065     0.00012     0.00008
  Kinetic  1175.23307  1176.26367  1164.93329   -45.34656    12.09844    40.28172
  Fock        0.00000     0.00000     0.00000     0.00000     0.00000     0.00000
  -------------------------------------------------------------------------------------
  Total      -2.29845    -2.29845    -2.29485    -0.00000     0.00000    -0.00000
  in kB     -13.27402   -13.27402   -13.25324    -0.00000     0.00000    -0.00000
  external pressure =      -13.27 kB  Pullay stress =        0.00 kB


 VOLUME and BASIS-vectors are now :
 -----------------------------------------------------------------------------
  energy-cutoff  :      415.00
  volume of cell :      277.42
      direct lattice vectors                 reciprocal lattice vectors
     2.820808618  0.000000000 -0.000000000     0.354508276  0.204675449 -0.000000000
    -1.410404309  2.442891922 -0.000000000    -0.000000000  0.409350897  0.000000000
     0.000000000 -0.000000000 40.259256866     0.000000000  0.000000000  0.024839008

  length of vectors
     2.820808618  2.820808618 40.259256866     0.409350897  0.409350897  0.024839008


 FORCES acting on ions
    electron-ion (+dipol)            ewald-force                    non-local-force                 convergence-correction
 -----------------------------------------------------------------------------------------------
   -.774E-05 -.115E-04 0.540E+04   -.302E-12 -.509E-09 -.540E+04   -.646E-16 0.645E-18 -.119E+01   -.311E-08 0.162E-08 -.180E-01
   0.486E-05 0.826E-05 0.179E+04   0.689E-11 0.281E-09 -.179E+04   -.145E-16 -.390E-18 -.380E+00   0.135E-07 -.749E-08 -.274E-01
   -.456E-05 -.811E-05 -.179E+04   -.683E-11 -.281E-09 0.179E+04   0.151E-16 0.207E-18 0.380E+00   -.135E-07 0.758E-08 0.274E-01
   0.771E-05 0.120E-04 -.540E+04   0.334E-12 0.509E-09 0.540E+04   0.587E-16 0.386E-18 0.119E+01   0.314E-08 -.156E-08 0.180E-01
   -.330E-05 -.975E-04 0.150E+04   -.716E-11 -.755E-09 -.150E+04   -.247E-16 0.103E-19 -.659E+00   -.887E-08 0.534E-08 -.173E-01
   0.629E-06 0.574E-06 0.102E-03   -.208E-14 -.416E-14 -.875E-11   -.734E-21 -.357E-21 -.168E-20   0.635E-10 -.277E-10 -.985E-07
   0.321E-05 0.983E-04 -.150E+04   0.721E-11 0.755E-09 0.150E+04   0.250E-16 -.456E-19 0.659E+00   0.896E-08 -.530E-08 0.173E-01
   -.159E-03 -.122E-03 0.427E+04   0.286E-11 0.352E-08 -.430E+04   0.103E-14 -.273E-16 0.286E+02   0.935E-08 -.455E-08 -.436E-02
   0.156E-03 0.121E-03 -.427E+04   -.288E-11 -.352E-08 0.430E+04   -.103E-14 0.302E-16 -.286E+02   -.950E-08 0.431E-08 0.436E-02
 -----------------------------------------------------------------------------------------------
   -.166E-05 0.130E-05 0.195E-03   0.128E-12 0.146E-12 0.909E-12   -.438E-17 0.369E-17 0.355E-14   0.885E-10 -.916E-10 -.419E-05
 
 
 POSITION                                       TOTAL-FORCE (eV/Angst)
 -----------------------------------------------------------------------------------
      0.00000      0.00000      0.95784        -0.000000      0.000000     -0.006719
      1.41040      0.81430      3.85930        -0.000000      0.000000     -0.000028
      0.00000      1.62859      6.80155         0.000000      0.000000      0.000028
      0.00000     -0.00000      9.70301         0.000000     -0.000000      0.006719
      0.00000      1.62859      2.34051         0.000000      0.000000      0.000053
      0.00000     -0.00000      5.33043        -0.000000      0.000000      0.000000
      1.41040      0.81430      8.32034        -0.000000     -0.000000     -0.000053
      1.41040      0.81430     -0.57034        -0.000000      0.000000     -0.002692
      0.00000      1.62859     11.23119         0.000000     -0.000000      0.002692
 -----------------------------------------------------------------------------------
    total drift:                               -0.000002      0.000001      0.000191


--------------------------------------------------------------------------------------------------------



  FREE ENERGIE OF THE ION-ELECTRON SYSTEM (eV)
  ---------------------------------------------------
  free  energy   TOTEN  =       -77.52818788 eV

  energy  without entropy=      -77.51982913  energy(sigma->0) =      -77.52400850
 
 d Force = 0.1426229E-03[ 0.154E-05, 0.284E-03]  d Energy = 0.1536523E-03-0.110E-04
 d Force = 0.3663829E+00[ 0.365E+00, 0.368E+00]  d Ewald  =-0.5143521E+02 0.518E+02


--------------------------------------------------------------------------------------------------------


    POTLOK:  cpu time    0.0194: real time    0.0194


--------------------------------------------------------------------------------------------------------


 Conjugate gradient step on ions:
 trial-energy change:   -0.000154  1 .order   -0.000149   -0.000295   -0.000002
  (g-gl).g = 0.153E-03      g.g   = 0.246E-03  gl.gl    = 0.744E-02
 g(Force)  = 0.235E-03   g(Stress)= 0.105E-04 ortho     = 0.384E-04
 gamma     =   0.02056
 trial     =   1.19826
 opt step  =   1.20691  (harmonic =   1.20776) maximal distance =0.00234869
 next E    =   -77.528188   (d E  =  -0.00015)


--------------------------------------------------------------------------------------------------------


  
Error EDDDAV: Call to ZHEGV failed

